 &FCI NORB=   6,NELEC= 6,MS2=0,
  ORBSYM=1,1,1,1,1,1,
  ISYM=1,
 &END
 0.6916278001479158    1    1    1    1
 2.831451329649015e-08    1    1    2    1
 0.3687553435417369    1    1    2    2
 0.002667052151141059    1    1    3    1
 8.264619179992883e-09    1    1    3    2
 0.2169321697584672    1    1    3    3
 -6.602054988293082e-08    1    1    4    1
 0.005959684046577575    1    1    4    2
 3.985724244290432e-07    1    1    4    3
 0.2167743506520995    1    1    4    4
 -0.02095016411030942    1    1    5    1
 -9.99799793868078e-07    1    1    5    2
 -0.006675686217486014    1    1    5    3
 -7.193378356081664e-09    1    1    5    4
 0.3723942839910736    1    1    5    5
 4.735399885963387e-07    1    1    6    1
 0.01296611954572341    1    1    6    2
 -8.021364273844145e-08    1    1    6    3
 0.001729100959889034    1    1    6    4
 -3.642230643474687e-08    1    1    6    5
 0.6998374636157092    1    1    6    6
 2.831451324488213e-08    2    1    1    1
 0.004079096406055622    2    1    2    1
 5.555037203245228e-08    2    1    2    2
 1.195617248760626e-09    2    1    3    1
 -0.0006487465811116444    2    1    3    2
 2.847576691149744e-08    2    1    3    3
 0.0003622060999687232    2    1    4    1
 -1.011549977624187e-10    2    1    4    2
 0.005235274896576445    2    1    4    3
 2.849072150066628e-08    2    1    4    4
 -3.316232585217314e-08    2    1    5    1
 -0.006249711273384346    2    1    5    2
 2.430592011771408e-10    2    1    5    3
 0.0006043818726451447    2    1    5    4
 5.711452204438432e-08    2    1    5    5
 0.005349077350917831    2    1    6    1
 3.281557909825053e-08    2    1    6    2
 0.0004323732157392793    2    1    6    3
 1.011173564530784e-09    2    1    6    4
 -0.005283671320618573    2    1    6    5
 1.349609041884081e-08    2    1    6    6
 0.3687553435417361    2    2    1    1
 5.555037167065402e-08    2    2    2    1
 0.5538092079342212    2    2    2    2
 -0.003155752785313979    2    2    3    1
 -5.565853119973013e-09    2    2    3    2
 0.3039680211041453    2    2    3    3
 -2.48700337450794e-08    2    2    4    1
 0.004810050312256828    2    2    4    2
 7.504068618032454e-08    2    2    4    3
 0.3038483074979497    2    2    4    4
 -0.007727829301240607    2    2    5    1
 -3.655490279433349e-07    2    2    5    2
 -0.004751533499327944    2    2    5    3
 7.345758569130001e-09    2    2    5    4
 0.5508886103226179    2    2    5    5
 5.002839830025446e-07    2    2    6    1
 0.01332668035790538    2    2    6    2
 -4.039402146712584e-08    2    2    6    3
 -0.004032038839259823    2    2    6    4
 3.049610774324973e-08    2    2    6    5
 0.3994597975815714    2    2    6    6
 0.002667052151140941    3    1    1    1
 1.19561729082767e-09    3    1    2    1
 -0.003155752785314067    3    1    2    2
 0.0002219478170522991    3    1    3    1
 3.588334383808085e-09    3    1    3    2
 0.0002506703324611515    3    1    3    3
 9.810481194709691e-10    3    1    4    1
 0.0005040660830661657    3    1    4    2
 3.592213601026391e-08    3    1    4    3
 0.0002567434544319742    3    1    4    4
 -0.0006726087024962295    3    1    5    1
 6.040805852769188e-09    3    1    5    2
 -0.0004932049978756657    3    1    5    3
 -3.565121283014309e-09    3    1    5    4
 -0.003123931522212204    3    1    5    5
 -2.562414402574613e-08    3    1    6    1
 0.0005281924424390564    3    1    6    2
 1.807169305609264e-09    3    1    6    3
 0.0002644801029145436    3    1    6    4
 -3.117077965530344e-09    3    1    6    5
 0.001371608549157061    3    1    6    6
 8.264619251387596e-09    3    2    1    1
 -0.0006487465811118229    3    2    2    1
 -5.565852493900469e-09    3    2    2    2
 3.58833431176285e-09    3    2    3    1
 0.005425540643168652    3    2    3    2
 2.686695068511612e-08    3    2    3    3
 0.0005148273591550733    3    2    4    1
 5.286942896415856e-09    3    2    4    2
 0.006166126123730765    3    2    4    3
 2.686271726821878e-08    3    2    4    4
 -4.319510683381891e-10    3    2    5    1
 -0.003682755982810636    3    2    5    2
 -5.880394282288179e-09    3    2    5    3
 -0.005340921919534628    3    2    5    4
 -5.351506461061251e-09    3    2    5    5
 0.004152214594705612    3    2    6    1
 -2.917724768172411e-09    3    2    6    2
 0.00073510409892801    3    2    6    3
 2.749733980252468e-09    3    2    6    4
 0.001262174137339888    3    2    6    5
 1.296976028463369e-08    3    2    6    6
 0.2169321697584672    3    3    1    1
 2.84757666543789e-08    3    3    2    1
 0.3039680211041453    3    3    2    2
 0.0002506703324612371    3    3    3    1
 2.68669507206068e-08    3    3    3    2
 0.4717909054175783    3    3    3    3
 2.544089681023182e-08    3    3    4    1
 0.006616025805909164    3    3    4    2
 -4.680513317634888e-09    3    3    4    3
 0.4719450448530712    3    3    4    4
 -0.005799004390053333    3    3    5    1
 -7.380324091102453e-08    3    3    5    2
 -0.006061482542155901    3    3    5    3
 -3.000565450272941e-08    3    3    5    4
 0.3020758221977609    3    3    5    5
 1.409832900830729e-07    3    3    6    1
 0.009562848453788922    3    3    6    2
 2.215624026781493e-08    3    3    6    3
 0.001641400997968404    3    3    6    4
 1.927326062634016e-09    3    3    6    5
 0.2251794745758703    3    3    6    6
 -6.602054988924969e-08    4    1    1    1
 0.0003622060999686572    4    1    2    1
 -2.487003343705756e-08    4    1    2    2
 9.810481166622079e-10    4    1    3    1
 0.0005148273591550532    4    1    3    2
 2.54408968696084e-08    4    1    3    3
 0.0001699518399105804    4    1    4    1
 3.411555041436354e-09    4    1    4    2
 0.0003002051719602365    4    1    4    3
 2.55161340174424e-08    4    1    4    4
 7.349502605352547e-10    4    1    5    1
 0.002980658942634552    4    1    5    2
 -3.258872761704041e-09    4    1    5    3
 -0.0005000888221778595    4    1    5    4
 -2.552931885918433e-08    4    1    5    5
 0.0008087697060157649    4    1    6    1
 7.491441048502068e-10    4    1    6    2
 0.0002370572930328943    4    1    6    3
 1.389283573220105e-09    4    1    6    4
 -0.0004207873332141833    4    1    6    5
 -7.148601544866727e-08    4    1    6    6
 0.005959684046577198    4    2    1    1
 -1.011551030113446e-10    4    2    2    1
 0.004810050312256383    4    2    2    2
 0.0005040660830662005    4    2    3    1
 5.286942940190519e-09    4    2    3    2
 0.006616025805908902    4    2    3    3
 3.411554961002105e-09    4    2    4    1
 0.005432848775382992    4    2    4    2
 3.122118793942106e-08    4    2    4    3
 0.006647707700494613    4    2    4    4
 0.0005635172794883512    4    2    5    1
 -1.065913518636784e-09    4    2    5    2
 -0.005373839474764444    4    2    5    3
 -5.657014707434222e-09    4    2    5    4
 0.004944220719591412    4    2    5    5
 1.528954962962646e-08    4    2    6    1
 -0.0008392091500159697    4    2    6    2
 2.201868644146699e-09    4    2    6    3
 0.0008069822502324972    4    2    6    4
 1.978102592316289e-09    4    2    6    5
 0.007686606184690119    4    2    6    6
 3.985724242419912e-07    4    3    1    1
 0.005235274896576318    4    3    2    1
 7.504068620656223e-08    4    3    2    2
 3.592213592123333e-08    4    3    3    1
 0.00616612612373084    4    3    3    2
 -4.680513384692792e-09    4    3    3    3
 0.0003002051719602529    4    3    4    1
 3.122118782863254e-08    4    3    4    2
 0.36502294818998    4    3    4    3
 -4.923074624395632e-09    4    3    4    4
 -4.881100452644449e-08    4    3    5    1
 -0.1678796921745857    4    3    5    2
 -3.768885727161234e-08    4    3    5    3
 -0.006049726370843616    4    3    5    4
 1.018374069360756e-07    4    3    5    5
 0.04222543468839254    4    3    6    1
 -1.510157870889678e-08    4    3    6    2
 0.001189115981770026    4    3    6    3
 3.359694515951347e-08    4    3    6    4
 -0.007196939199055589    4    3    6    5
 3.649407603182643e-07    4    3    6    6
 0.2167743506520994    4    4    1    1
 2.849072123362051e-08    4    4    2    1
 0.3038483074979496    4    4    2    2
 0.0002567434544320599    4    4    3    1
 2.686271728322143e-08    4    4    3    2
 0.4719450448530711    4    4    3    3
 2.551613396788166e-08    4    4    4    1
 0.006647707700494822    4    4    4    2
 -4.923074569318162e-09    4    4    4    3
 0.4720996389610522    4    4    4    4
 -0.005803275341763794    4    4    5    1
 -7.251012846057336e-08    4    4    5    2
 -0.006091917636569842    4    4    5    3
 -3.000679861097505e-08    4    4    5    4
 0.3019540884134377    4    4    5    5
 1.399270775923403e-07    4    4    6    1
 0.009572807895844054    4    4    6    2
 2.224974873440977e-08    4    4    6    3
 0.001651741422884306    4    4    6    4
 1.845136494982302e-09    4    4    6    5
 0.2250219658413694    4    4    6    6
 -0.02095016411030907    5    1    1    1
 -3.316232588600025e-08    5    1    2    1
 -0.007727829301241001    5    1    2    2
 -0.0006726087024962738    5    1    3    1
 -4.31951016350695e-10    5    1    3    2
 -0.00579900439005335    5    1    3    3
 7.349502982112802e-10    5    1    4    1
 0.0005635172794881727    5    1    4    2
 -4.881100471950702e-08    5    1    4    3
 -0.005803275341763829    5    1    4    4
 0.006038735135890656    5    1    5    1
 1.025427757068466e-07    5    1    5    2
 -0.0006126414864737202    5    1    5    3
 7.978378036357925e-10    5    1    5    4
 -0.007398514157742255    5    1    5    5
 -6.127340415764239e-08    5    1    6    1
 -0.006244625127856967    5    1    6    2
 1.119805170411627e-09    5    1    6    3
 -0.000645454380826052    5    1    6    4
 3.141750909950447e-08    5    1    6    5
 -0.01520445723820219    5    1    6    6
 -9.997997941326234e-07    5    2    1    1
 -0.006249711273384292    5    2    2    1
 -3.655490277941487e-07    5    2    2    2
 6.040806090439857e-09    5    2    3    1
 -0.003682755982811196    5    2    3    2
 -7.380324089493852e-08    5    2    3    3
 0.002980658942634385    5    2    4    1
 -1.065913032643161e-09    5    2    4    2
 -0.167879692174586    5    2    4    3
 -7.25101284028667e-08    5    2    4    4
 1.025427755346753e-07    5    2    5    1
 0.3676369038213746    5    2    5    2
 7.225763760769499e-09    5    2    5    3
 0.004355757386589587    5    2    5    4
 -4.196025698774419e-07    5    2    5    5
 -0.112381386783331    5    2    6    1
 5.012340795890191e-08    5    2    6    2
 0.005560958012742956    5    2    6    3
 1.498204152275764e-08    5    2    6    4
 0.005535294254586307    5    2    6    5
 -1.001540706231999e-06    5    2    6    6
 -0.006675686217485683    5    3    1    1
 2.430593200666853e-10    5    3    2    1
 -0.004751533499327481    5    3    2    2
 -0.0004932049978757016    5    3    3    1
 -5.880394318832569e-09    5    3    3    2
 -0.006061482542155607    5    3    3    3
 -3.25887268207278e-09    5    3    4    1
 -0.005373839474764427    5    3    4    2
 -3.768885736999352e-08    5    3    4    3
 -0.006091917636569582    5    3    4    4
 -0.0006126414864738774    5    3    5    1
 7.225764188053575e-09    5    3    5    2
 0.005320056431138728    5    3    5    3
 6.225145627550711e-09    5    3    5    4
 -0.004907985838062908    5    3    5    5
 -1.825896442082895e-08    5    3    6    1
 0.000943201066332864    5    3    6    2
 -2.054834741461098e-09    5    3    6    3
 -0.0007836845001281457    5    3    6    4
 -2.129748932007576e-09    5    3    6    5
 -0.008349136754273571    5    3    6    6
 -7.193378425795864e-09    5    4    1    1
 0.0006043818726452965    5    4    2    1
 7.345757917524495e-09    5    4    2    2
 -3.565121210291448e-09    5    4    3    1
 -0.005340921919534629    5    4    3    2
 -3.000565448896682e-08    5    4    3    3
 -0.0005000888221778851    5    4    4    1
 -5.657014684083217e-09    5    4    4    2
 -0.006049726370843543    5    4    4    3
 -3.000679859358038e-08    5    4    4    4
 7.978378366497486e-10    5    4    5    1
 0.004355757386589042    5    4    5    2
 6.225145610894655e-09    5    4    5    3
 0.005259764380764437    5    4    5    4
 7.057640608433904e-09    5    4    5    5
 -0.004302789646383546    5    4    6    1
 2.618717604308679e-09    5    4    6    2
 -0.0007099778452042169    5    4    6    3
 -2.809102697795465e-09    5    4    6    4
 -0.001203602370280726    5    4    6    5
 -1.247269895568795e-08    5    4    6    6
 0.3723942839910728    5    5    1    1
 5.711452168155606e-08    5    5    2    1
 0.5508886103226182    5    5    2    2
 -0.003123931522212091    5    5    3    1
 -5.351507145843343e-09    5    5    3    2
 0.3020758221977609    5    5    3    3
 -2.552931914565765e-08    5    5    4    1
 0.004944220719591902    5    5    4    2
 1.018374068753331e-07    5    5    4    3
 0.3019540884134378    5    5    4    4
 -0.007398514157741926    5    5    5    1
 -4.196025697178474e-07    5    5    5    2
 -0.004907985838063348    5    5    5    3
 7.057641297769646e-09    5    5    5    4
 0.5481325444181617    5    5    5    5
 5.097343509525426e-07    5    5    6    1
 0.01260381706928901    5    5    6    2
 -4.120659707288615e-08    5    5    6    3
 -0.004026335159602299    5    5    6    4
 2.679149765927313e-08    5    5    6    5
 0.4025800401547505    5    5    6    6
 4.735399882719454e-07    6    1    1    1
 0.00534907735091774    6    1    2    1
 5.002839831369857e-07    6    1    2    2
 -2.562414407221436e-08    6    1    3    1
 0.004152214594705628    6    1    3    2
 1.40983290280147e-07    6    1    3    3
 0.0008087697060157855    6    1    4    1
 1.528954970297274e-08    6    1    4    2
 0.04222543468839258    6    1    4    3
 1.399270777313825e-07    6    1    4    4
 -6.127340405545634e-08    6    1    5    1
 -0.112381386783331    6    1    5    2
 -1.825896448479688e-08    6    1    5    3
 -0.00430278964638352    6    1    5    4
 5.09734351106933e-07    6    1    5    5
 0.2122117082778659    6    1    6    1
 -4.353681972574241e-08    6    1    6    2
 -0.001973988337525583    6    1    6    3
 -3.62824852002952e-08    6    1    6    4
 0.004560736163448043    6    1    6    5
 3.417080994341792e-07    6    1    6    6
 0.01296611954572269    6    2    1    1
 3.281557898852927e-08    6    2    2    1
 0.01332668035790537    6    2    2    2
 0.0005281924424391027    6    2    3    1
 -2.917724572528129e-09    6    2    3    2
 0.00956284845378897    6    2    3    3
 7.491440327778674e-10    6    2    4    1
 -0.0008392091500158212    6    2    4    2
 -1.510157846930504e-08    6    2    4    3
 0.009572807895844155    6    2    4    4
 -0.006244625127856798    6    2    5    1
 5.012340708655284e-08    6    2    5    2
 0.0009432010663327961    6    2    5    3
 2.618717376355172e-09    6    2    5    4
 0.01260381706928876    6    2    5    5
 -4.353681990116633e-08    6    2    6    1
 0.0077961867592152    6    2    6    2
 1.81115777502525e-09    6    2    6    3
 0.0006531646015887192    6    2    6    4
 -3.590884298026661e-08    6    2    6    5
 0.01246773589852363    6    2    6    6
 -8.021364272784337e-08    6    3    1    1
 0.0004323732157391659    6    3    2    1
 -4.039402103528811e-08    6    3    2    2
 1.807169310364507e-09    6    3    3    1
 0.0007351040989279659    6    3    3    2
 2.215624036863853e-08    6    3    3    3
 0.0002370572930328813    6    3    4    1
 2.201868789747427e-09    6    3    4    2
 0.001189115981770013    6    3    4    3
 2.224974883468153e-08    6    3    4    4
 1.119805087199111e-09    6    3    5    1
 0.00556095801274324    6    3    5    2
 -2.054834888058784e-09    6    3    5    3
 -0.000709977845204161    6    3    5    4
 -4.120659663909686e-08    6    3    5    5
 -0.001973988337525668    6    3    6    1
 1.811157866694543e-09    6    3    6    2
 0.0003840215881933258    6    3    6    3
 2.248503575469135e-09    6    3    6    4
 -0.0006764314481922483    6    3    6    5
 -8.903315449145964e-08    6    3    6    6
 0.001729100959888782    6    4    1    1
 1.01117359754474e-09    6    4    2    1
 -0.004032038839260114    6    4    2    2
 0.0002644801029145226    6    4    3    1
 2.749734174284e-09    6    4    3    2
 0.001641400997968233    6    4    3    3
 1.38928358023862e-09    6    4    4    1
 0.000806982250232384    6    4    4    2
 3.359694532206037e-08    6    4    4    3
 0.001651741422884155    6    4    4    4
 -0.0006454543808259172    6    4    5    1
 1.498204102478359e-08    6    4    5    2
 -0.0007836845001280185    6    4    5    3
 -2.809102895933412e-09    6    4    5    4
 -0.004026335159602651    6    4    5    5
 -3.62824851969545e-08    6    4    6    1
 0.0006531646015885777    6    4    6    2
 2.248503576146761e-09    6    4    6    3
 0.0003649457894211769    6    4    6    4
 -4.12143876797231e-09    6    4    6    5
 0.001316867492622868    6    4    6    6
 -3.642230637067052e-08    6    5    1    1
 -0.005283671320618576    6    5    2    1
 3.049610738069253e-08    6    5    2    2
 -3.117077904926831e-09    6    5    3    1
 0.001262174137339589    6    5    3    2
 1.927325632476804e-09    6    5    3    3
 -0.0004207873332142544    6    5    4    1
 1.978102401008815e-09    6    5    4    2
 -0.007196939199055838    6    5    4    3
 1.845136102887363e-09    6    5    4    4
 3.141750908172355e-08    6    5    5    1
 0.005535294254586433    6    5    5    2
 -2.129748704948536e-09    6    5    5    3
 -0.001203602370280478    6    5    5    4
 2.679149718797045e-08    6    5    5    5
 0.004560736163447886    6    5    6    1
 -3.590884298568763e-08    6    5    6    2
 -0.0006764314481923776    6    5    6    3
 -4.121438697051935e-09    6    5    6    4
 0.007627867805978009    6    5    6    5
 -4.453804540666476e-08    6    5    6    6
 0.6998374636157084    6    6    1    1
 1.349608982903483e-08    6    6    2    1
 0.3994597975815705    6    6    2    2
 0.001371608549157186    6    6    3    1
 1.296976096551265e-08    6    6    3    2
 0.2251794745758704    6    6    3    3
 -7.148601546000735e-08    6    6    4    1
 0.007686606184690142    6    6    4    2
 3.649407603379968e-07    6    6    4    3
 0.2250219658413695    6    6    4    4
 -0.01520445723820213    6    6    5    1
 -1.001540708048254e-06    6    6    5    2
 -0.008349136754273401    6    6    5    3
 -1.247269965001102e-08    6    6    5    4
 0.402580040154749    6    6    5    5
 3.417080980984422e-07    6    6    6    1
 0.01246773589852396    6    6    6    2
 -8.903315428833436e-08    6    6    6    3
 0.001316867492623067    6    6    6    4
 -4.453804544612971e-08    6    6    6    5
 0.7570428599673789    6    6    6    6
 -2.297658023708407    1    1  0  0
 2.620775715516566e-06    2    1  0  0
 -1.82729291481609    2    2  0  0
 0.05543016961968041    3    1  0  0
 1.550328251748815e-07    3    2  0  0
 -1.53549072453306    3    3  0  0
 5.130333471904025e-07    4    1  0  0
 0.3088503241078623    4    2  0  0
 -7.750472624342686e-07    4    3  0  0
 -1.532268024005721    4    4  0  0
 -0.2391602214895908    5    1  0  0
 7.706877625841063e-07    5    2  0  0
 -0.2965605234677103    5    3  0  0
 -2.307631701446453e-07    5    4  0  0
 -1.873462831789077    5    5  0  0
 -5.913648373771225e-08    6    1  0  0
 0.4075288609455933    6    2  0  0
 4.540613241250823e-07    6    3  0  0
 0.09738145271568271    6    4  0  0
 -3.364186128189056e-06    6    5  0  0
 -1.649028270950267    6    6  0  0
 4.833338916034926  0  0  0  0
