 &FCI NORB=  10,NELEC=10,MS2=0,
  ORBSYM=1,1,1,1,1,1,1,1,1,1,
  ISYM=1,
 &END
 0.8255517462681371    1    1    1    1
 -0.01124783373448236    1    1    2    1
 0.4397896355150561    1    1    2    2
 0.002051125387358153    1    1    3    1
 -0.01170223944226783    1    1    3    2
 0.2405270686734441    1    1    3    3
 -0.0009578585705865333    1    1    4    1
 0.002412046340448502    1    1    4    2
 -0.00327874253393043    1    1    4    3
 0.1624736225029357    1    1    4    4
 0.0002732263948136714    1    1    5    1
 -0.0007122714740848277    1    1    5    2
 0.0007401380725110433    1    1    5    3
 -0.00119688184981397    1    1    5    4
 0.1226387122911427    1    1    5    5
 -7.076011416926196e-05    1    1    6    1
 0.0001869223814870756    1    1    6    2
 -0.0002333206176417289    1    1    6    3
 0.0002882740854744636    1    1    6    4
 -0.000559853908968223    1    1    6    5
 0.09850179110035193    1    1    6    6
 1.876086548132106e-05    1    1    7    1
 -4.766277842765172e-05    1    1    7    2
 6.333978344468717e-05    1    1    7    3
 -9.734027312812273e-05    1    1    7    4
 0.0001412337101045582    1    1    7    5
 -0.0003064546348677419    1    1    7    6
 0.08230298435283001    1    1    7    7
 -4.92354956475706e-06    1    1    8    1
 1.238818075598234e-05    1    1    8    2
 -1.665569588097595e-05    1    1    8    3
 2.739458843266088e-05    1    1    8    4
 -5.001234502500356e-05    1    1    8    5
 7.978919276856368e-05    1    1    8    6
 -0.0001852396654534457    1    1    8    7
 0.07067586276446716    1    1    8    8
 1.269045105904826e-06    1    1    9    1
 -3.186353261566697e-06    1    1    9    2
 4.394115809088617e-06    1    1    9    3
 -7.32924599311068e-06    1    1    9    4
 1.425077165556568e-05    1    1    9    5
 -2.856919331526103e-05    1    1    9    6
 4.729760582481623e-05    1    1    9    7
 -0.0001130644170787805    1    1    9    8
 0.0618991209637245    1    1    9    9
 -2.899255920971229e-07    1    1   10    1
 7.226675920426384e-07    1    1   10    2
 -1.006203809038328e-06    1    1   10    3
 1.697466154917202e-06    1    1   10    4
 -3.230554863059259e-06    1    1   10    5
 6.467730809396629e-06    1    1   10    6
 -1.157364241368055e-05    1    1   10    7
 1.062085983814516e-05    1    1   10    8
 4.600499220519527e-06    1    1   10    9
 0.05470478161650576    1    1   10   10
 -0.01124783373448294    2    1    1    1
 0.0092602930183165    2    1    2    1
 -0.008653455594245716    2    1    2    2
 -0.001014003335612195    2    1    3    1
 -0.001512786631722268    2    1    3    2
 -0.01001941497229892    2    1    3    3
 0.0001946217811754479    2    1    4    1
 0.0003347710338903561    2    1    4    2
 0.0006466696609181101    2    1    4    3
 -0.002501196171497497    2    1    4    4
 -4.892578113406133e-05    2    1    5    1
 -5.1467221683496e-05    2    1    5    2
 -0.0001186863634211075    2    1    5    3
 0.0001354135132119209    2    1    5    4
 -0.0007506081561021167    2    1    5    5
 1.198692102853068e-05    2    1    6    1
 9.909708117575095e-06    2    1    6    2
 3.280536372271345e-05    2    1    6    3
 -2.752690560515622e-05    2    1    6    4
 2.973986720451806e-05    2    1    6    5
 -0.0002732043332091253    2    1    6    6
 -2.929651373017479e-06    2    1    7    1
 -2.230885112137151e-06    2    1    7    2
 -8.350708633183779e-06    2    1    7    3
 7.700794315003081e-06    2    1    7    4
 -6.397038875248885e-06    2    1    7    5
 8.452609929049962e-06    2    1    7    6
 -0.0001078199735978422    2    1    7    7
 7.337798152908719e-07    2    1    8    1
 5.069135965749809e-07    2    1    8    2
 2.055162786382362e-06    2    1    8    3
 -1.961534735612154e-06    2    1    8    4
 1.883830178641843e-06    2    1    8    5
 -1.893973503316029e-06    2    1    8    6
 2.978032695623611e-06    2    1    8    7
 -4.045621542299918e-05    2    1    8    8
 -1.840713657508728e-07    2    1    9    1
 -1.180833679875668e-07    2    1    9    2
 -5.1450189731529e-07    2    1    9    3
 4.846720645881093e-07    2    1    9    4
 -4.857456650630121e-07    2    1    9    5
 5.8094575468879e-07    2    1    9    6
 -6.791888995819711e-07    2    1    9    7
 1.196068355469912e-06    2    1    9    8
 -1.017798838118261e-05    2    1    9    9
 4.126796675656324e-08    2    1   10    1
 2.542187630007713e-08    2    1   10    2
 1.15510336986441e-07    2    1   10    3
 -1.088419575070509e-07    2    1   10    4
 1.082546618266519e-07    2    1   10    5
 -1.349897782235758e-07    2    1   10    6
 1.86616843962907e-07    2    1   10    7
 -2.236189494615045e-07    2    1   10    8
 3.839684533265675e-07    2    1   10    9
 4.599083440708196e-06    2    1   10   10
 0.4397896355150561    2    2    1    1
 -0.00865345559424577    2    2    2    1
 0.888074986390532    2    2    2    2
 -0.006290579937918021    2    2    3    1
 -0.01369128103488684    2    2    3    2
 0.4589871224871634    2    2    3    3
 0.001253071459187189    2    2    4    1
 0.002547784281771463    2    2    4    2
 -0.0125534884758206    2    2    4    3
 0.2474325270560364    2    2    4    4
 -0.0002115918616364132    2    2    5    1
 -0.001147753110755221    2    2    5    2
 0.002580091700077749    2    2    5    3
 -0.003496360658624423    2    2    5    4
 0.1657218513721737    2    2    5    5
 4.125168097032093e-05    2    2    6    1
 0.0003291991564093874    2    2    6    2
 -0.0007619505656544786    2    2    6    3
 0.000786463314598494    2    2    6    4
 -0.001258490653834741    2    2    6    5
 0.1245077665173905    2    2    6    6
 -8.69782542487482e-06    2    2    7    1
 -8.546551770318171e-05    2    2    7    2
 0.0001999201695169577    2    2    7    3
 -0.0002470127120368127    2    2    7    4
 0.000302185548032661    2    2    7    5
 -0.0005824204073693183    2    2    7    6
 0.09971464372797162    2    2    7    7
 1.871762277205013e-06    2    2    8    1
 2.262542033857736e-05    2    2    8    2
 -5.090726506550638e-05    2    2    8    3
 6.687381011194856e-05    2    2    8    4
 -0.0001016090655631201    2    2    8    5
 0.0001462947362042816    2    2    8    6
 -0.0003156769576491373    2    2    8    7
 0.08315033442528788    2    2    8    8
 -4.154456709531192e-07    2    2    9    1
 -5.886095640069338e-06    2    2    9    2
 1.309870724385739e-05    2    2    9    3
 -1.736501389001936e-05    2    2    9    4
 2.815720332511297e-05    2    2    9    5
 -5.070037529447781e-05    2    2    9    6
 7.902574020181597e-05    2    2    9    7
 -0.0001802330761986067    2    2    9    8
 0.07126721352640744    2    2    9    9
 8.634440322947806e-08    2    2   10    1
 1.343078648995657e-06    2    2   10    2
 -2.973943333693871e-06    2    2   10    3
 3.988087529142187e-06    2    2   10    4
 -6.387781343920966e-06    2    2   10    5
 1.166130906782742e-05    2    2   10    6
 -2.022249662078249e-05    2    2   10    7
 2.112090491153461e-05    2    2   10    8
 -1.017604238299011e-05    2    2   10    9
 0.06189907685578078    2    2   10   10
 0.002051125387358177    3    1    1    1
 -0.00101400333561226    3    1    2    1
 -0.006290579937917849    3    1    2    2
 0.0003970362661523586    3    1    3    1
 -0.0009184555629069385    3    1    3    2
 0.00177499580618971    3    1    3    3
 -5.885964474327824e-05    3    1    4    1
 2.672747041650743e-05    3    1    4    2
 0.0003140711462854837    3    1    4    3
 0.002098235919706901    3    1    4    4
 1.185413891320653e-05    3    1    5    1
 4.437667603099566e-06    3    1    5    2
 -6.906149649662994e-05    3    1    5    3
 -0.0001198103415399071    3    1    5    4
 0.0005952679963484193    3    1    5    5
 -2.866320529568024e-06    3    1    6    1
 -7.30125704524591e-07    3    1    6    2
 1.101514422770138e-05    3    1    6    3
 2.210775268337583e-05    3    1    6    4
 -2.81483129683126e-05    3    1    6    5
 0.0002040831804310139    3    1    6    6
 7.034223084383412e-07    3    1    7    1
 1.374919493702346e-07    3    1    7    2
 -2.161683351612039e-06    3    1    7    3
 -6.258591980287683e-06    3    1    7    4
 5.769555770767199e-06    3    1    7    5
 -6.720464511874795e-06    3    1    7    6
 8.628430919921661e-05    3    1    7    7
 -1.736325161952463e-07    3    1    8    1
 -4.270515356551624e-08    3    1    8    2
 4.872966974951533e-07    3    1    8    3
 1.604718514604724e-06    3    1    8    4
 -1.640590066444583e-06    3    1    8    5
 1.462817969260473e-06    3    1    8    6
 -2.06134627768938e-06    3    1    8    7
 4.135910946253926e-05    3    1    8    8
 4.321259877576871e-08    3    1    9    1
 1.118748089608992e-08    3    1    9    2
 -1.105347433873696e-07    3    1    9    3
 -3.934181801644078e-07    3    1    9    4
 4.173997939736974e-07    3    1    9    5
 -4.345914957884204e-07    3    1    9    6
 4.623903034815147e-07    3    1    9    7
 -7.673358213878469e-07    3    1    9    8
 2.112691953138172e-05    3    1    9    9
 -9.659729120255039e-09    3    1   10    1
 -2.497656392804328e-09    3    1   10    2
 2.318255083860322e-08    3    1   10    3
 8.795339961823217e-08    3    1   10    4
 -9.206684801140676e-08    3    1   10    5
 9.97875022854772e-08    3    1   10    6
 -1.242286173501886e-07    3    1   10    7
 1.396203412698062e-07    3    1   10    8
 -2.236299188468688e-07    3    1   10    9
 1.062531762446725e-05    3    1   10   10
 -0.01170223944226743    3    2    1    1
 -0.001512786631722339    3    2    2    1
 -0.01369128103488747    3    2    2    2
 -0.0009184555629068147    3    2    3    1
 0.0102152678422746    3    2    3    2
 -0.01347724637588994    3    2    3    3
 7.635943137416903e-05    3    2    4    1
 -0.001057870496842313    3    2    4    2
 -0.001465119703779712    3    2    4    3
 -0.01242215882760545    3    2    4    4
 -1.033929341459653e-05    3    2    5    1
 0.0002021122282050886    3    2    5    2
 0.0003288621564412648    3    2    5    3
 0.0007506926327609774    3    2    5    4
 -0.003437965800550262    3    2    5    5
 2.968822390056357e-06    3    2    6    1
 -5.179865803241382e-05    3    2    6    2
 -4.555770728447217e-05    3    2    6    3
 -0.0001391066764639353    3    2    6    4
 0.0001613363236263597    3    2    6    5
 -0.001225546160605883    3    2    6    6
 -8.032099932937146e-07    3    2    7    1
 1.279030805885709e-05    3    2    7    2
 8.055345637230403e-06    3    2    7    3
 3.867188958956765e-05    3    2    7    4
 -3.309615907738303e-05    3    2    7    5
 3.743993510875538e-05    3    2    7    6
 -0.0005614392781702419    3    2    7    7
 2.008582258416758e-07    3    2    8    1
 -3.135715476586335e-06    3    2    8    2
 -1.740263415269172e-06    3    2    8    3
 -9.862682622517192e-06    3    2    8    4
 9.36057237097618e-06    3    2    8    5
 -8.157682799687728e-06    3    2    8    6
 1.144125083685447e-05    3    2    8    7
 -0.0003020792724137769    3    2    8    8
 -5.078130058721052e-08    3    2    9    1
 7.813018459124177e-07    3    2    9    2
 3.726588852814607e-07    3    2    9    3
 2.413547131259346e-06    3    2    9    4
 -2.378103401885643e-06    3    2    9    5
 2.422291090829362e-06    3    2    9    6
 -2.5725141647373e-06    3    2    9    7
 4.297341386960162e-06    3    2    9    8
 -0.0001802332586810129    3    2    9    9
 1.151668698229509e-08    3    2   10    1
 -1.747958221719046e-07    3    2   10    2
 -7.464510875994185e-08    3    2   10    3
 -5.38608781541621e-07    3    2   10    4
 5.241747425100036e-07    3    2   10    5
 -5.555162191041135e-07    3    2   10    6
 6.885990414141567e-07    3    2   10    7
 -7.672798401030264e-07    3    2   10    8
 1.196052753366013e-06    3    2   10    9
 -0.0001130642669117313    3    2   10   10
 0.2405270686734441    3    3    1    1
 -0.01001941497229879    3    3    2    1
 0.4589871224871637    3    3    2    2
 0.001774995806189516    3    3    3    1
 -0.01347724637588947    3    3    3    2
 0.8917026445133978    3    3    3    3
 0.001194308679243022    3    3    4    1
 -0.006164655295450726    3    3    4    2
 -0.01382694795629651    3    3    4    3
 0.4600520167970095    3    3    4    4
 -0.0002786224907416985    3    3    5    1
 0.001226738171634232    3    3    5    2
 0.002577516929459443    3    3    5    3
 -0.01259783439766329    3    3    5    4
 0.2478253815185742    3    3    5    5
 5.295359990624925e-05    3    3    6    1
 -0.0001972487209422154    3    3    6    2
 -0.00115976712085888    3    3    6    3
 0.002588857196777597    3    3    6    4
 -0.003508397190237682    3    3    6    5
 0.165909982146972    3    3    6    6
 -1.11557964291665e-05    3    3    7    1
 3.676224104736235e-05    3    3    7    2
 0.0003327275420568254    3    3    7    3
 -0.0007645162194292738    3    3    7    4
 0.0007889283753463475    3    3    7    5
 -0.00126177232416117    3    3    7    6
 0.124616952315284    3    3    7    7
 2.486782045654275e-06    3    3    8    1
 -7.434656014106576e-06    3    3    8    2
 -8.635294534340561e-05    3    3    8    3
 0.0002004586995113767    3    3    8    4
 -0.0002475311106162522    3    3    8    5
 0.0003024320121016075    3    3    8    6
 -0.0005822534926738348    3    3    8    7
 0.09978202638487181    3    3    8    8
 -5.612479057664805e-07    3    3    9    1
 1.514344451979988e-06    3    3    9    2
 2.264762885565209e-05    3    3    9    3
 -5.055399976670558e-05    3    3    9    4
 6.624908582927931e-05    3    3    9    5
 -0.0001000751861111961    3    3    9    6
 0.0001418179086425607    3    3    9    7
 -0.0003020797472541705    3    3    9    8
 0.08315039847836773    3    3    9    9
 1.180598020036582e-07    3    3   10    1
 -2.951968304938658e-07    3    3   10    2
 -5.207454208116972e-06    3    3   10    3
 1.146563571342095e-05    3    3   10    4
 -1.490715508110932e-05    3    3   10    5
 2.314629618045698e-05    3    3   10    6
 -3.728281221582573e-05    3    3   10    7
 4.135094284015743e-05    3    3   10    8
 -4.045376347115021e-05    3    3   10    9
 0.07067585150325725    3    3   10   10
 -0.0009578585705865228    4    1    1    1
 0.0001946217811754541    4    1    2    1
 0.001253071459187162    4    1    2    2
 -5.885964474327481e-05    4    1    3    1
 7.635943137419468e-05    4    1    3    2
 0.001194308679242966    4    1    3    3
 2.139786352785068e-05    4    1    4    1
 -5.640944770052504e-05    4    1    4    2
 0.0001754742343576184    4    1    4    3
 -0.0009577045967088867    4    1    4    4
 -3.304376900482319e-06    4    1    5    1
 3.954003781650399e-06    4    1    5    2
 3.785284372735254e-06    4    1    5    3
 -4.199680429605523e-05    4    1    5    4
 -0.0006440364703052373    4    1    5    5
 6.970655602631586e-07    4    1    6    1
 -4.409150134670184e-07    4    1    6    2
 -2.785038033759145e-06    4    1    6    3
 1.013156419735374e-05    4    1    6    4
 3.391387760287431e-05    4    1    6    5
 -0.0002006639450488994    4    1    6    6
 -1.734418143468175e-07    4    1    7    1
 1.183594271441834e-07    4    1    7    2
 5.213475555176211e-07    4    1    7    3
 -9.200779761356616e-07    4    1    7    4
 -6.420159735280745e-06    4    1    7    5
 8.168815517742624e-06    4    1    7    6
 -7.801729789115809e-05    4    1    7    7
 4.334822071550555e-08    4    1    8    1
 -2.889562258470981e-08    4    1    8    2
 -1.108207415634223e-07    4    1    8    3
 8.422232014596452e-08    4    1    8    4
 1.827403765499735e-06    4    1    8    5
 -1.700325531187377e-06    4    1    8    6
 2.105939081412067e-06    4    1    8    7
 -3.728319365916259e-05    4    1    8    8
 -1.075742742556341e-08    4    1    9    1
 6.697441076431852e-09    4    1    9    2
 2.785192648807833e-08    4    1    9    3
 -9.818012183087106e-09    4    1    9    4
 -4.655626860493834e-07    4    1    9    5
 4.870011349300168e-07    4    1    9    6
 -4.595444913287315e-07    4    1    9    7
 6.886059021023723e-07    4    1    9    8
 -2.022278960704447e-05    4    1    9    9
 2.40433687085986e-09    4    1   10    1
 -1.460344162467653e-09    4    1   10    2
 -6.097118245725728e-09    4    1   10    3
 -1.119135763910918e-11    4    1   10    4
 1.019220218727388e-07    4    1   10    5
 -1.105399670434586e-07    4    1   10    6
 1.202906741330023e-07    4    1   10    7
 -1.242220890439878e-07    4    1   10    8
 1.866165973675924e-07    4    1   10    9
 -1.157379466830601e-05    4    1   10   10
 0.002412046340448388    4    2    1    1
 0.0003347710338904052    4    2    2    1
 0.002547784281771568    4    2    2    2
 2.67274704164623e-05    4    2    3    1
 -0.001057870496842316    4    2    3    2
 -0.006164655295450453    4    2    3    3
 -5.640944770051647e-05    4    2    4    1
 0.0004487604318545981    4    2    4    2
 -0.001049984743829184    4    2    4    3
 0.00251114383154475    4    2    4    4
 5.976662823710314e-06    4    2    5    1
 -6.433901290440882e-05    4    2    5    2
 3.264782224863013e-05    4    2    5    3
 0.0003277644470770347    4    2    5    4
 0.002550194920439312    4    2    5    5
 -9.798036477918131e-07    4    2    6    1
 1.282280185310635e-05    4    2    6    2
 3.767350729979417e-06    4    2    6    3
 -7.255318256738347e-05    4    2    6    4
 -0.0001389715533509123    4    2    6    5
 0.0007733003737557049    4    2    6    6
 2.525113283603816e-07    4    2    7    1
 -3.121833115097172e-06    4    2    7    2
 -4.648037105752554e-07    4    2    7    3
 1.100149970657157e-05    4    2    7    4
 2.581796016102238e-05    4    2    7    5
 -3.309027436717709e-05    4    2    7    6
 0.0002947719655032575    4    2    7    7
 -6.367327889050333e-08    4    2    8    1
 7.690388682497876e-07    4    2    8    2
 6.178085629829913e-08    4    2    8    3
 -2.077850861346123e-06    4    2    8    4
 -7.328655338647053e-06    4    2    8    5
 6.820615658404328e-06    4    2    8    6
 -8.164278628175252e-06    4    2    8    7
 0.0001418068749924068    4    2    8    8
 1.556554946565789e-08    4    2    9    1
 -1.885853541720919e-07    4    2    9    2
 -2.321522468911363e-08    4    2    9    3
 4.568947688029193e-07    4    2    9    4
 1.866378887861271e-06    4    2    9    5
 -1.936158694720295e-06    4    2    9    6
 1.768748799585647e-06    4    2    9    7
 -2.572411798018556e-06    4    2    9    8
 7.901847379075708e-05    4    2    9    9
 -3.465913866403908e-09    4    2   10    1
 4.184608770579142e-08    4    2   10    2
 5.492314984672945e-09    4    2   10    3
 -9.139225886921167e-08    4    2   10    4
 -4.077420806080006e-07    4    2   10    5
 4.382007264059558e-07    4    2   10    6
 -4.595242238555028e-07    4    2   10    7
 4.62344180461074e-07    4    2   10    8
 -6.79155171755087e-07    4    2   10    9
 4.729227532488971e-05    4    2   10   10
 -0.00327874253393045    4    3    1    1
 0.0006466696609180978    4    3    2    1
 -0.01255348847582086    4    3    2    2
 0.0003140711462855313    4    3    3    1
 -0.001465119703779694    4    3    3    2
 -0.01382694795629738    4    3    3    3
 0.0001754742343576183    4    3    4    1
 -0.001049984743829183    4    3    4    2
 0.01027215097880428    4    3    4    3
 -0.01381234885387503    4    3    4    4
 -1.080055328061466e-05    4    3    5    1
 9.037968549155471e-05    4    3    5    2
 -0.001059498992570955    4    3    5    3
 -0.001461303568328787    4    3    5    4
 -0.01258855389003092    4    3    5    5
 9.789340731285119e-07    4    3    6    1
 -1.283821930099355e-05    4    3    6    2
 0.0002022928767601438    4    3    6    3
 0.0003283307596948271    4    3    6    4
 0.0007576624970992678    4    3    6    5
 -0.003504312388812349    4    3    6    6
 -3.509306254511426e-07    4    3    7    1
 3.638883362451683e-06    4    3    7    2
 -5.190992184958748e-05    4    3    7    3
 -4.512575884017699e-05    4    3    7    4
 -0.0001404705576562432    4    3    7    5
 0.0001631103109551414    4    3    7    6
 -0.001259636533449404    4    3    7    7
 1.017917939566114e-07    4    3    8    1
 -9.767598530253009e-07    4    3    8    2
 1.281777489054448e-05    4    3    8    3
 7.918972261096608e-06    4    3    8    4
 3.904445586231816e-05    4    3    8    5
 -3.345403814570678e-05    4    3    8    6
 3.794148384297461e-05    4    3    8    7
 -0.0005822538164299713    4    3    8    8
 -2.546840437197776e-08    4    3    9    1
 2.4250539497863e-07    4    3    9    2
 -3.116989714135918e-06    4    3    9    3
 -1.694478886157161e-06    4    3    9    4
 -9.877239269332638e-06    4    3    9    5
 9.383518337078217e-06    4    3    9    6
 -8.164560899313795e-06    4    3    9    7
 1.144127981985206e-05    4    3    9    8
 -0.0003156781057826807    4    3    9    9
 5.796370659422632e-09    4    3   10    1
 -5.448319031329e-08    4    3   10    2
 6.915750955059093e-07    4    3   10    3
 3.269873350247065e-07    4    3   10    4
 2.151627303583165e-06    4    3   10    5
 -2.115967793557036e-06    4    3   10    6
 2.105924198779308e-06    4    3   10    7
 -2.061230559731212e-06    4    3   10    8
 2.97800844341264e-06    4    3   10    9
 -0.0001852398417359407    4    3   10   10
 0.1624736225029356    4    4    1    1
 -0.002501196171497514    4    4    2    1
 0.2474325270560367    4    4    2    2
 0.002098235919707016    4    4    3    1
 -0.01242215882760599    4    4    3    2
 0.46005201679701    4    4    3    3
 -0.0009577045967089364    4    4    4    1
 0.002511143831544932    4    4    4    2
 -0.01381234885387511    4    4    4    3
 0.8919139922302057    4    4    4    4
 -0.0001867600244250141    4    4    5    1
 0.001223304712784662    4    4    5    2
 -0.006148373276837692    4    4    5    3
 -0.01383594158788243    4    4    5    4
 0.4601120792158457    4    4    5    5
 5.067551562966785e-05    4    4    6    1
 -0.0002890038051295362    4    4    6    2
 0.001223769011862606    4    4    6    3
 0.00257965920421163    4    4    6    4
 -0.01260024990032515    4    4    6    5
 0.2478487718276688    4    4    6    6
 -9.706075620796007e-06    4    4    7    1
 5.412233561214513e-05    4    4    7    2
 -0.0001960645306568564    4    4    7    3
 -0.001160450176752354    4    4    7    4
 0.002589110061668178    4    4    7    5
 -0.003508744817871645    4    4    7    6
 0.1659206090140237    4    4    7    7
 2.021047894426906e-06    4    4    8    1
 -1.124460180734668e-05    4    4    8    2
 3.639915153180105e-05    4    4    8    3
 0.0003326945974679255    4    4    8    4
 -0.0007640674333530813    4    4    8    5
 0.0007880572322027573    4    4    8    6
 -0.001259631428946137    4    4    8    7
 0.1246168100349718    4    4    8    8
 -4.465408749319884e-07    4    4    9    1
 2.465316998837496e-06    4    4    9    2
 -7.309022751801421e-06    4    4    9    3
 -8.550602613524027e-05    4    4    9    4
 0.0001984146774248619    4    4    9    5
 -0.0002441440506349783    4    4    9    6
 0.0002947889272146651    4    4    9    7
 -0.0005614386278489459    4    4    9    8
 0.09971464506808717    4    4    9    9
 9.173666984004383e-08    4    4   10    1
 -5.022918930329235e-07    4    4   10    2
 1.377071408878017e-06    4    4   10    3
 1.977161399300236e-05    4    4   10    4
 -4.401373141508109e-05    4    4   10    5
 5.613180587001718e-05    4    4   10    6
 -7.801632142900403e-05    4    4   10    7
 8.627207911919305e-05    4    4   10    8
 -0.0001078161287317754    4    4   10    9
 0.08230290719849351    4    4   10   10
 0.0002732263948136675    5    1    1    1
 -4.892578113406051e-05    5    1    2    1
 -0.0002115918616364102    5    1    2    2
 1.185413891320479e-05    5    1    3    1
 -1.033929341459973e-05    5    1    3    2
 -0.0002786224907416909    5    1    3    3
 -3.304376900482427e-06    5    1    4    1
 5.976662823713371e-06    5    1    4    2
 -1.080055328061964e-05    5    1    4    3
 -0.0001867600244250169    5    1    4    4
 1.212499050225906e-06    5    1    5    1
 -3.236779130974333e-06    5    1    5    2
 1.123860950492884e-05    5    1    5    3
 -4.542893498855857e-05    5    1    5    4
 0.0002848231146777856    5    1    5    5
 -1.913050024118309e-07    5    1    6    1
 2.857026582441618e-07    5    1    6    2
 -4.630881369323513e-07    5    1    6    3
 -4.501445955855057e-07    5    1    6    4
 7.161542220101237e-06    5    1    6    5
 0.0001720613161417034    5    1    6    6
 4.17955396668132e-08    5    1    7    1
 -4.409060695297016e-08    5    1    7    2
 4.266712099513456e-09    5    1    7    3
 4.898661227226064e-07    5    1    7    4
 -1.859336083951715e-06    5    1    7    5
 -8.727479373240071e-06    5    1    7    6
 5.61325194305077e-05    5    1    7    7
 -1.056398536805647e-08    5    1    8    1
 1.135416991617505e-08    5    1    8    2
 -5.444936860052849e-09    5    1    8    3
 -7.46281363252808e-08    5    1    8    4
 6.216164171800924e-08    5    1    8    5
 1.664993436906491e-06    5    1    8    6
 -2.115989559637745e-06    5    1    8    7
 2.31464817733538e-05    5    1    8    8
 2.64652943768e-09    5    1    9    1
 -2.817396712561028e-09    5    1    9    2
 1.521545396567802e-09    5    1    9    3
 1.360609164828928e-08    5    1    9    4
 1.981048099409965e-08    5    1    9    5
 -4.706580370283261e-07    5    1    9    6
 4.382187929276524e-07    5    1    9    7
 -5.555223811826447e-07    5    1    9    8
 1.16614433851933e-05    5    1    9    9
 -5.894558875434334e-10    5    1   10    1
 6.088199733535049e-10    5    1   10    2
 -2.73440773091072e-10    5    1   10    3
 -3.015848964389506e-09    5    1   10    4
 -6.302303039112218e-09    5    1   10    5
 1.06722836488444e-07    5    1   10    6
 -1.105402589073322e-07    5    1   10    7
 9.978341326750855e-08    5    1   10    8
 -1.349898711925132e-07    5    1   10    9
 6.467788919540659e-06    5    1   10   10
 -0.0007122714740848053    5    2    1    1
 -5.146722168351169e-05    5    2    2    1
 -0.001147753110755231    5    2    2    2
 4.437667603113089e-06    5    2    3    1
 0.0002021122282050764    5    2    3    2
 0.001226738171634205    5    2    3    3
 3.95400378164952e-06    5    2    4    1
 -6.43390129044157e-05    5    2    4    2
 9.037968549158168e-05    5    2    4    3
 0.001223304712784665    5    2    4    4
 -3.23677913097389e-06    5    2    5    1
 2.49571391847062e-05    5    2    5    2
 -6.407034325395922e-05    5    2    5    3
 0.0002002937641549739    5    2    5    4
 -0.001144814566339619    5    2    5    5
 3.254752536739931e-07    5    2    6    1
 -3.728964768503415e-06    5    2    6    2
 4.638135807452834e-06    5    2    6    3
 3.75334984373137e-06    5    2    6    4
 -4.491192157434362e-05    5    2    6    5
 -0.0007555053154613075    5    2    6    6
 -5.613075996416497e-08    5    2    7    1
 7.787782766987495e-07    5    2    7    2
 -5.546111691523954e-07    5    2    7    3
 -2.946281115664484e-06    5    2    7    4
 1.091875302845665e-05    5    2    7    5
 3.871184587716127e-05    5    2    7    6
 -0.0002441443242597898    5    2    7    7
 1.472944737446748e-08    5    2    8    1
 -1.948110690348629e-07    5    2    8    2
 1.491945603560615e-07    5    2    8    3
 5.34083750291209e-07    5    2    8    4
 -8.973850657667956e-07    5    2    8    5
 -7.343721946603009e-06    5    2    8    6
 9.383486734158613e-06    5    2    8    7
 -0.000100074946660875    5    2    8    8
 -3.726206111226899e-09    5    2    9    1
 4.84466821549289e-08    5    2    9    2
 -3.658315655697956e-08    5    2    9    3
 -1.102735354086464e-07    5    2    9    4
 5.967626749305674e-08    5    2    9    5
 2.075550874603721e-06    5    2    9    6
 -1.936211829589752e-06    5    2    9    7
 2.422287722714759e-06    5    2    9    8
 -5.070046891866341e-05    5    2    9    9
 8.213842660544707e-10    5    2   10    1
 -1.071341786212846e-08    5    2   10    2
 7.673912005799075e-09    5    2   10    3
 2.47545348745051e-08    5    2   10    4
 -3.755907608681853e-09    5    2   10    5
 -4.706514722839616e-07    5    2   10    6
 4.869959816668166e-07    5    2   10    7
 -4.345685546831546e-07    5    2   10    8
 5.809393237157329e-07    5    2   10    9
 -2.856918788836149e-05    5    2   10   10
 0.0007401380725110754    5    3    1    1
 -0.0001186863634210987    5    3    2    1
 0.002580091700077777    5    3    2    2
 -6.906149649665651e-05    5    3    3    1
 0.0003288621564413287    5    3    3    2
 0.002577516929459465    5    3    3    3
 3.78528437273334e-06    5    3    4    1
 3.264782224864216e-05    5    3    4    2
 -0.001059498992571024    5    3    4    3
 -0.006148373276837565    5    3    4    4
 1.123860950492786e-05    5    3    5    1
 -6.407034325395404e-05    5    3    5    2
 0.0004520762381343775    5    3    5    3
 -0.001058930251772133    5    3    5    4
 0.002575201632529491    5    3    5    5
 -9.9098386950409e-07    5    3    6    1
 6.893105860677373e-06    5    3    6    2
 -6.461814561459472e-05    5    3    6    3
 3.292518329589655e-05    5    3    6    4
 0.0003282582832425854    5    3    6    5
 0.002586774383460604    5    3    6    6
 1.356370845982877e-07    5    3    7    1
 -1.146220654726826e-06    5    3    7    2
 1.286495547105474e-05    5    3    7    3
 3.743433535961267e-06    5    3    7    4
 -7.270928420405111e-05    5    3    7    5
 -0.0001404651329393412    5    3    7    6
 0.0007880979051502831    5    3    7    7
 -3.607920534405811e-08    5    3    8    1
 2.950783328492905e-07    5    3    8    2
 -3.132181059053112e-06    5    3    8    3
 -4.500223513607161e-07    5    3    8    4
 1.097015422968308e-05    5    3    8    5
 2.609136040030294e-05    5    3    8    6
 -3.345502481409791e-05    5    3    8    7