 &FCI NORB=40 ,NELEC=8 ,MS2=0,
  ORBSYM=1,1,2,1,3,1,2,1,3,1,2,2,1,4,1,3,2,1,2,2,1,3,1,4,1,2,3,1,2,4,3,1,2,1,2,1,3,1,4,1,
  ISYM=1,
 &END
  7.556447868434e-01    1  1  1  1
  1.545025514605e-01    2  1  2  1
  6.847090717847e-01    2  2  1  1
  6.716779113165e-01    2  2  2  2
 -1.897944388934e-02    3  1  1  1
 -1.463598265282e-02    3  1  2  2
  1.248451131403e-01    3  1  3  1
 -1.651224129165e-02    3  2  2  1
  4.068814415646e-02    3  2  3  2
  6.770556818902e-01    3  3  1  1
  6.074347433147e-01    3  3  2  2
  6.598548153321e-02    3  3  3  1
  7.161760636474e-01    3  3  3  3
  1.271561885109e-01    4  1  4  1
  2.971097828926e-02    4  2  4  2
  2.909809932723e-02    4  3  4  1
  4.106129727521e-02    4  3  4  3
  7.050291786435e-01    4  4  1  1
  6.187039700965e-01    4  4  2  2
  3.336857050332e-02    4  4  3  1
  6.498882391842e-01    4  4  3  3
  7.374426939814e-01    4  4  4  4
  1.323402653679e-01    5  1  1  1
  8.374310018698e-02    5  1  2  2
 -2.754155453463e-02    5  1  3  1
  7.801464865551e-02    5  1  3  3
  1.218420070579e-01    5  1  4  4
  1.013817966400e-01    5  1  5  1
 -1.965191011403e-02    5  2  2  1
  1.560039780934e-02    5  2  3  2
  5.361928835569e-02    5  2  5  2
 -1.370136946162e-01    5  3  1  1
 -8.940826007710e-02    5  3  2  2
 -3.238346328754e-02    5  3  3  1
 -1.485413136478e-01    5  3  3  3
 -1.363017159049e-01    5  3  4  4
 -7.735010004317e-02    5  3  5  1
  1.060574013643e-01    5  3  5  3
  3.528082298441e-02    5  4  4  1
 -4.339033733356e-03    5  4  4  3
  2.797072039551e-02    5  4  5  4
  6.851228599734e-01    5  5  1  1
  6.256203050743e-01    5  5  2  2
 -7.585191159821e-02    5  5  3  1
  6.066696981760e-01    5  5  3  3
  6.130882610409e-01    5  5  4  4
  1.188948585071e-01    5  5  5  1
 -1.079937380409e-01    5  5  5  3
  7.102349619307e-01    5  5  5  5
  4.035710498572e-02    6  1  2  1
  2.691501821745e-02    6  1  3  2
  3.872935830101e-02    6  1  5  2
  6.255043968520e-02    6  1  6  1
  1.678174537547e-01    6  2  1  1
  1.308857482742e-01    6  2  2  2
  5.934752445683e-02    6  2  3  1
  1.627453487323e-01    6  2  3  3
  1.765350104602e-01    6  2  4  4
  8.745203690041e-02    6  2  5  1
 -1.067569792747e-01    6  2  5  3
  1.009665630990e-01    6  2  5  5
  1.700521263101e-01    6  2  6  2
  5.944339962927e-02    6  3  2  1
  3.119110316275e-03    6  3  3  2
 -3.303305415819e-02    6  3  5  2
  6.057958900071e-03    6  3  6  1
  4.783679734378e-02    6  3  6  3
  1.650744873960e-02    6  4  4  2
  1.965267203172e-02    6  4  6  4
  9.848690868153e-02    6  5  2  1
 -4.161900217600e-02    6  5  3  2
 -3.706956528444e-02    6  5  5  2
 -5.638744680076e-03    6  5  6  1
  4.075606949477e-02    6  5  6  3
  1.076419096060e-01    6  5  6  5
  6.713246435181e-01    6  6  1  1
  6.562550981108e-01    6  6  2  2
 -3.281435956444e-03    6  6  3  1
  6.148712442005e-01    6  6  3  3
  6.177989869718e-01    6  6  4  4
  8.135237640571e-02    6  6  5  1
 -9.429006138631e-02    6  6  5  3
  6.427471566008e-01    6  6  5  5
  1.426610665819e-01    6  6  6  2
  6.835455199625e-01    6  6  6  6
  1.179950293022e-02    7  1  1  1
  1.155938758720e-02    7  1  2  2
  1.210053962991e-03    7  1  3  1
  1.204676556965e-02    7  1  3  3
  1.001856235860e-02    7  1  4  4
  1.058006355716e-04    7  1  5  1
 -1.962823430209e-03    7  1  5  3
  9.841746767130e-03    7  1  5  5
  3.011496897044e-03    7  1  6  2
  1.173447916135e-02    7  1  6  6
  4.601017662595e-04    7  1  7  1
  4.425113085275e-03    7  2  2  1
 -7.177475723856e-04    7  2  3  2
 -1.429786570655e-03    7  2  5  2
  7.708655428655e-04    7  2  6  1
  2.609497782136e-03    7  2  6  3
  2.720330085642e-03    7  2  6  5
  4.650584643093e-04    7  2  7  2
  8.272052253122e-03    7  3  1  1
  5.923230623129e-03    7  3  2  2
  4.653208803179e-03    7  3  3  1
  1.111013911432e-02    7  3  3  3
  9.231878615522e-03    7  3  4  4
  2.731446351051e-03    7  3  5  1
 -6.497824996332e-03    7  3  5  3
  6.810157654262e-03    7  3  5  5
  7.608288354493e-03    7  3  6  2
  8.042480996625e-03    7  3  6  6
  2.901876493625e-04    7  3  7  1
  9.739205408333e-04    7  3  7  3
 -9.329471041052e-04    7  4  4  1
  5.049076271466e-04    7  4  4  3
 -9.573639748802e-05    7  4  5  4
  5.618099989489e-04    7  4  7  4
 -1.716242602485e-02    7  5  1  1
 -1.530173645966e-02    7  5  2  2
 -2.513713375791e-04    7  5  3  1
 -1.727552517023e-02    7  5  3  3
 -1.502713494850e-02    7  5  4  4
 -3.151623478740e-03    7  5  5  1
  5.019451026500e-03    7  5  5  3
 -1.666347359868e-02    7  5  5  5
 -4.422727419910e-03    7  5  6  2
 -1.585624465465e-02    7  5  6  6
 -4.467639238596e-04    7  5  7  1
 -8.782467915022e-05    7  5  7  3
  9.568072540755e-04    7  5  7  5
  1.075787174513e-03    7  6  2  1
  2.665791776128e-03    7  6  3  2
  9.533723976510e-04    7  6  5  2
  2.549300579513e-03    7  6  6  1
  8.950940919618e-04    7  6  6  3
 -1.531162236989e-03    7  6  6  5
 -2.835464378721e-04    7  6  7  2
  5.805199588551e-04    7  6  7  6
  1.592905082985e-01    7  7  1  1
  1.594264560486e-01    7  7  2  2
 -1.016744541474e-03    7  7  3  1
  1.585881579976e-01    7  7  3  3
  1.584920963876e-01    7  7  4  4
 -1.271746150232e-04    7  7  5  1
  2.645030626455e-04    7  7  5  3
  1.602316958772e-01    7  7  5  5
 -3.775394395971e-04    7  7  6  2
  1.598246695788e-01    7  7  6  6
  1.292190413637e-04    7  7  7  1
  2.935400723965e-04    7  7  7  3
  6.209121681053e-05    7  7  7  5
  1.358534711689e-01    7  7  7  7
 -2.595646310831e-02    8  1  4  1
 -5.919989957684e-03    8  1  4  3
 -9.312776379350e-03    8  1  5  4
 -3.862430794040e-04    8  1  7  4
  6.196518785370e-03    8  1  8  1
 -5.435620885182e-03    8  2  4  2
 -4.841574394647e-03    8  2  6  4
  1.585146119827e-03    8  2  8  2
 -5.346141257791e-03    8  3  4  1
 -7.466749640693e-03    8  3  4  3
  1.911199137753e-03    8  3  5  4
 -4.742979899551e-04    8  3  7  4
  1.434993222055e-03    8  3  8  1
  2.370063404712e-03    8  3  8  3
 -9.793409641228e-02    8  4  1  1
 -7.881145008575e-02    8  4  2  2
 -6.678066369736e-03    8  4  3  1
 -8.550679348084e-02    8  4  3  3
 -1.025879671732e-01    8  4  4  4
 -2.924079499532e-02    8  4  5  1
  3.195588769234e-02    8  4  5  3
 -8.081784075076e-02    8  4  5  5
 -4.139992024971e-02    8  4  6  2
 -8.143474447469e-02    8  4  6  6
 -2.192126398592e-03    8  4  7  1
 -2.560369083819e-03    8  4  7  3
  2.858441726759e-03    8  4  7  5
 -1.063913393161e-03    8  4  7  7
  2.393990947430e-02    8  4  8  4
 -1.307857306174e-02    8  5  4  1
  2.144826102843e-03    8  5  4  3
 -6.876934452930e-03    8  5  5  4
  3.121897598358e-04    8  5  7  4
  2.790294994928e-03    8  5  8  1
 -1.855487986822e-04    8  5  8  3
  2.723077964125e-03    8  5  8  5
 -6.137060518210e-03    8  6  4  2
 -4.525868644827e-03    8  6  6  4
  1.041476690022e-03    8  6  8  2
  1.755813812925e-03    8  6  8  6
 -1.109472272396e-02    8  7  4  1
 -3.300067967338e-03    8  7  4  3
  5.040072629670e-04    8  7  5  4
  2.815592922804e-03    8  7  7  4
 -2.169767766770e-04    8  7  8  1
 -8.604271063616e-04    8  7  8  3
  1.351494808835e-03    8  7  8  5
  2.161866933073e-02    8  7  8  7
  2.464318695485e-01    8  8  1  1
  2.368858207076e-01    8  8  2  2
  8.551244499668e-03    8  8  3  1
  2.439869994757e-01    8  8  3  3
  2.556464557839e-01    8  8  4  4
  1.205402875581e-02    8  8  5  1
 -1.534528779193e-02    8  8  5  3
  2.311486850509e-01    8  8  5  5
  1.955986384828e-02    8  8  6  2
  2.336937011683e-01    8  8  6  6
  6.975975838359e-04    8  8  7  1
 -4.585781774871e-04    8  8  7  3
 -2.735426296490e-03    8  8  7  5
  1.481675972335e-01    8  8  7  7
 -4.644505167193e-03    8  8  8  4
  2.216131506703e-01    8  8  8  8
  2.495715926711e-02    9  1  1  1
  1.634077274976e-02    9  1  2  2
  1.506427685734e-02    9  1  3  1
  2.977069720853e-02    9  1  3  3
  3.229726640325e-02    9  1  4  4
  1.006028232248e-02    9  1  5  1
 -1.690332721236e-02    9  1  5  3
  1.370948141490e-02    9  1  5  5
  2.434932557101e-02    9  1  6  2
  1.970607670412e-02    9  1  6  6
  6.267010094765e-04    9  1  7  1
  1.730602301154e-03    9  1  7  3
 -5.875543898841e-04    9  1  7  5
  7.634920791550e-05    9  1  7  7
 -7.483904397018e-03    9  1  8  4
  3.111729116327e-03    9  1  8  8
  4.856564768822e-03    9  1  9  1
 -8.004262254889e-03    9  2  2  1
  8.607530085223e-03    9  2  3  2
  1.115013705195e-02    9  2  5  2
  1.055609934425e-02    9  2  6  1
 -4.256845403784e-03    9  2  6  3
 -1.399845391023e-02    9  2  6  5
 -3.303365366087e-05    9  2  7  2
  3.406466491758e-04    9  2  7  6
  4.148461774604e-03    9  2  9  2
  5.508816372183e-02    9  3  1  1
  4.967321146440e-02    9  3  2  2
  8.208109315532e-03    9  3  3  1
  5.888271530964e-02    9  3  3  3
  5.183179219602e-02    9  3  4  4
  4.797549760525e-03    9  3  5  1
 -1.535051890056e-02    9  3  5  3
  4.862746804943e-02    9  3  5  5
  1.721285362012e-02    9  3  6  2
  5.364038457427e-02    9  3  6  6
  1.868952121741e-03    9  3  7  1
  2.100958237223e-03    9  3  7  3
 -1.854681729795e-03    9  3  7  5
  9.501094557442e-04    9  3  7  7
 -1.090263537007e-02    9  3  8  4
  4.459792382532e-03    9  3  8  8
  4.121683886347e-03    9  3  9  1
  9.767344305628e-03    9  3  9  3
  1.547191705380e-02    9  4  4  1
  6.664376006125e-03    9  4  4  3
  3.615513048577e-03    9  4  5  4
  1.496259929705e-04    9  4  7  4
 -3.534949375176e-03    9  4  8  1
 -1.976169405504e-03    9  4  8  3
 -1.525654864747e-03    9  4  8  5
 -8.393329666345e-04    9  4  8  7
  3.153366774395e-03    9  4  9  4
  2.162484427635e-02    9  5  1  1
  2.555319339112e-02    9  5  2  2
 -1.358860955318e-02    9  5  3  1
  8.378069766966e-03    9  5  3  3
  1.443202823346e-02    9  5  4  4
  7.078068169021e-05    9  5  5  1
  6.955440116248e-03    9  5  5  3
  2.794505280602e-02    9  5  5  5
 -9.040602636899e-03    9  5  6  2
  2.564368917107e-02    9  5  6  6
  5.349750385168e-04    9  5  7  1
 -5.810904296636e-04    9  5  7  3
 -7.461349436973e-04    9  5  7  5
  6.401076653588e-04    9  5  7  7
 -2.394497226562e-03    9  5  8  4
  1.205923329389e-03    9  5  8  8
 -1.845812827042e-03    9  5  9  1
  2.074999136079e-03    9  5  9  3
  4.719160371138e-03    9  5  9  5
  2.721262040857e-02    9  6  2  1
 -3.207069027235e-03    9  6  3  2
 -1.145533151878e-02    9  6  5  2
  2.064104921441e-03    9  6  6  1
  1.581390050960e-02    9  6  6  3
  2.248723579216e-02    9  6  6  5
  7.651943643292e-04    9  6  7  2
  2.600895948135e-04    9  6  7  6
 -3.050347687371e-03    9  6  9  2
  7.009255393930e-03    9  6  9  6
  6.811058743259e-03    9  7  1  1
  5.450432615184e-03    9  7  2  2
  1.260108361790e-02    9  7  3  1
  1.440067910163e-02    9  7  3  3
  1.024383859463e-02    9  7  4  4
  3.226896177389e-03    9  7  5  1
 -8.484875487359e-03    9  7  5  3
 -4.318018152130e-03    9  7  5  5
  9.319337784702e-03    9  7  6  2
  2.184810658223e-03    9  7  6  6
 -3.818622893720e-05    9  7  7  1
 -1.892823904458e-03    9  7  7  3
 -2.154125303042e-03    9  7  7  5
 -3.375870514478e-03    9  7  7  7
 -7.554385898458e-04    9  7  8  4
  8.862170364860e-03    9  7  8  8
  1.064546019058e-04    9  7  9  1
 -2.092337720126e-03    9  7  9  3
 -1.223870301797e-03    9  7  9  5
  2.459951159335e-02    9  7  9  7
 -4.176743918076e-03    9  8  4  1
 -4.891279229953e-03    9  8  4  3
 -2.031639390441e-03    9  8  5  4
 -4.450754067777e-05    9  8  7  4
  8.722132465444e-04    9  8  8  1
 -1.404264974723e-03    9  8  8  3
 -1.474399086053e-03    9  8  8  5
  3.737261814037e-04    9  8  8  7
  1.601751335926e-03    9  8  9  4
  1.448055360592e-02    9  8  9  8
  2.296571934194e-01    9  9  1  1
  2.253355026753e-01    9  9  2  2
  1.206605067109e-02    9  9  3  1
  2.387656101832e-01    9  9  3  3
  2.304168606287e-01    9  9  4  4
  4.183929444786e-03    9  9  5  1
 -9.965605669076e-03    9  9  5  3
  2.191633890827e-01    9  9  5  5
  1.307416262362e-02    9  9  6  2
  2.229060543647e-01    9  9  6  6
  7.209721053894e-04    9  9  7  1
 -1.271270381425e-03    9  9  7  3
 -2.774272830254e-03    9  9  7  5
  1.478787182966e-01    9  9  7  7
 -6.210768851379e-03    9  9  8  4
  1.876749946314e-01    9  9  8  8
  9.921876574322e-04    9  9  9  1
 -4.421503881711e-04    9  9  9  3
 -1.194307754740e-03    9  9  9  5
  1.741963037643e-02    9  9  9  7
  2.132504641691e-01    9  9  9  9
 -4.471355082052e-03    10  1  2  1
  2.783073721044e-03    10  1  3  2
  2.624835450735e-03    10  1  5  2
  1.625498795778e-03    10  1  6  1
 -1.949318955655e-03    10  1  6  3
 -4.710019277988e-03    10  1  6  5
 -2.360690120681e-04    10  1  7  2
  2.128917875722e-04    10  1  7  6
  8.358702587517e-04    10  1  9  2
 -9.388983953341e-04    10  1  9  6
  3.240292942453e-04    10  1  10  1
 -1.151472115455e-02    10  2  1  1
 -1.244963589080e-02    10  2  2  2
  5.136293945018e-03    10  2  3  1
 -7.690644756577e-03    10  2  3  3
 -7.642396034401e-03    10  2  4  4
  5.470649354492e-04    10  2  5  1
 -1.936756451748e-03    10  2  5  3
 -1.306064794329e-02    10  2  5  5
  3.420218148004e-03    10  2  6  2
 -1.122982436036e-02    10  2  6  6
 -3.504271027252e-04    10  2  7  1
  1.965661934796e-04    10  2  7  3
  4.619360047188e-04    10  2  7  5
 -2.408474513448e-04    10  2  7  7
  1.118038541498e-03    10  2  8  4
 -1.224073709384e-03    10  2  8  8
  6.348963696564e-04    10  2  9  1
 -1.068757961067e-03    10  2  9  3
 -1.493002644389e-03    10  2  9  5
  3.806286983981e-04    10  2  9  7
 -1.229966445409e-03    10  2  9  9
  7.816629721617e-04    10  2  10  2
  5.286251733707e-03    10  3  2  1
 -1.391630056681e-03    10  3  3  2
 -2.498317458758e-03    10  3  5  2
 -3.634579442560e-04    10  3  6  1
  2.986450594480e-03    10  3  6  3
  4.439872290397e-03    10  3  6  5
  2.460302888634e-04    10  3  7  2
 -1.182605245259e-04    10  3  7  6
 -6.709087113677e-04    10  3  9  2
  1.215485094727e-03    10  3  9  6
 -2.660331293749e-04    10  3  10  1
  3.189106137330e-04    10  3  10  3
 -8.376088337627e-05    10  4  4  2
  2.291688801584e-04    10  4  6  4
  8.404009122421e-05    10  4  8  2
 -1.307092342890e-04    10  4  8  6
  6.850156777711e-05    10  4  10  4
  4.976039820227e-03    10  5  2  1
 -2.794919695720e-03    10  5  3  2
 -3.889209887673e-03    10  5  5  2
 -2.094440410568e-03    10  5  6  1
  3.095400248897e-03    10  5  6  3
  6.236131742657e-03    10  5  6  5
  3.395747013175e-04    10  5  7  2
 -3.402451717200e-04    10  5  7  6
 -1.047896156814e-03    10  5  9  2
  1.382455307828e-03    10  5  9  6
 -3.778446645390e-04    10  5  10  1
  3.800425844318e-04    10  5  10  3
  5.885002868965e-04    10  5  10  5
  1.661330816310e-02    10  6  1  1
  1.706773381339e-02    10  6  2  2
 -2.415123583706e-03    10  6  3  1
  1.452484240739e-02    10  6  3  3
  1.344257345911e-02    10  6  4  4
  2.581202728386e-04    10  6  5  1
 -3.239329845535e-04    10  6  5  3
  1.774684531548e-02    10  6  5  5
  3.738667613439e-04    10  6  6  2
  1.791582953924e-02    10  6  6  6
  5.099617565849e-04    10  6  7  1
  2.645580096295e-05    10  6  7  3
 -7.255616736645e-04    10  6  7  5
  2.287070160708e-04    10  6  7  7
 -2.319362443221e-03    10  6  8  4
  2.071911114918e-03    10  6  8  8
  2.979760147667e-05    10  6  9  1
  1.909422797263e-03    10  6  9  3
  1.462038705438e-03    10  6  9  5
  1.042849721407e-05    10  6  9  7
  2.138001337985e-03    10  6  9  9
 -7.629249178575e-04    10  6  10  2
  9.802349555377e-04    10  6  10  6
 -1.101804291602e-02    10  7  2  1
  2.798072782330e-03    10  7  3  2
  8.059186516679e-03    10  7  5  2
  3.063889076824e-03    10  7  6  1
 -6.880486475023e-03    10  7  6  3
 -1.278420835159e-02    10  7  6  5
  1.486033627553e-03    10  7  7  2
 -2.216130145531e-03    10  7  7  6
  2.868667596982e-03    10  7  9  2
 -3.578055230079e-03    10  7  9  6
  1.020175047169e-04    10  7  10  1
  6.590132348508e-05    10  7  10  3
  5.017710773702e-04    10  7  10  5
  3.406830176475e-02    10  7  10  7
  9.495436097606e-04    10  8  4  2
 -4.515498800797e-04    10  8  6  4
  5.121678924016e-04    10  8  8  2
 -7.241785450933e-04    10  8  8  6
  3.210629265912e-04    10  8  10  4
  3.258428800091e-03    10  8  10  8
  2.057021350828e-03    10  9  2  1
 -1.553340868502e-03    10  9  3  2
 -2.104607125894e-03    10  9  5  2
 -1.047856431492e-03    10  9  6  1
  1.756308209358e-03    10  9  6  3
  3.371935699193e-03    10  9  6  5
 -5.702733042662e-06    10  9  7  2
  1.598153058220e-04    10  9  7  6
 -1.132442608914e-04    10  9  9  2
  3.048338953533e-04    10  9  9  6
 -1.031249554979e-04    10  9  10  1
 -1.178032147044e-04    10  9  10  3
 -1.038056155038e-04    10  9  10  5
 -4.371622794939e-03    10  9  10  7
  3.016174269966e-03    10  9  10  9
  1.400849704290e-01    10  10  1  1
  1.418002847506e-01    10  10  2  2
 -3.508469992744e-03    10  10  3  1
  1.375559033062e-01    10  10  3  3
  1.378730920015e-01    10  10  4  4
 -1.233743014081e-03    10  10  5  1
  2.261995502126e-03    10  10  5  3
  1.435420882668e-01    10  10  5  5
 -3.494645107208e-03    10  10  6  2
  1.430997000816e-01    10  10  6  6
  1.149699146887e-04    10  10  7  1
  6.729980713047e-04    10  10  7  3
  5.936672421426e-04    10  10  7  5
  1.291843440576e-01    10  10  7  7
 -1.184425893983e-03    10  10  8  4
  1.270386306802e-01    10  10  8  8
 -2.751860215010e-04    10  10  9  1
  1.655249733964e-03    10  10  9  3
  1.654509288096e-03    10  10  9  5
 -6.659104819884e-03    10  10  9  7
  1.252582969514e-01    10  10  9  9
  6.451713978184e-05    10  10  10  2
 -3.133400141094e-04    10  10  10  6
  1.367692725754e-01    10  10  10  10
 -1.181463295234e-02    11  1  2  1
  7.004107631014e-03    11  1  3  2
  3.876806053830e-03    11  1  5  2
  9.486067719978e-04    11  1  6  1
 -4.444455880226e-03    11  1  6  3
 -1.180975787886e-02    11  1  6  5
 -6.893831567769e-04    11  1  7  2
  5.049079212795e-04    11  1  7  6
  1.205476891147e-03    11  1  9  2
 -2.068775572728e-03    11  1  9  6
  7.428698078842e-04    11  1  10  1
 -5.702146861314e-04    11  1  10  3
 -8.109661197294e-04    11  1  10  5
  3.878936498299e-05    11  1  10  7
 -5.105250851500e-04    11  1  10  9
  2.194831336955e-03    11  1  11  1
 -3.334967812112e-02    11  2  1  1
 -3.302709251754e-02    11  2  2  2
  1.468461616929e-02    11  2  3  1
 -2.120277861807e-02    11  2  3  3
 -2.276923519804e-02    11  2  4  4
 -3.864869939433e-03    11  2  5  1
 -6.670843564356e-04    11  2  5  3
 -3.867721250339e-02    11  2  5  5
  9.085890247982e-04    11  2  6  2
 -3.366669989507e-02    11  2  6  6
 -1.028511221156e-03    11  2  7  1
 -2.624170700460e-04    11  2  7  3
  1.037598198619e-03    11  2  7  5
 -5.620224117683e-04    11  2  7  7
  4.812231657965e-03    11  2  8  4
 -9.240466405664e-04    11  2  8  8
  3.229762932042e-04    11  2  9  1
 -3.886224415563e-03    11  2  9  3
 -3.512540962222e-03    11  2  9  5
  3.647866939820e-03    11  2  9  7
  2.144999971095e-04    11  2  9  9
  1.797516573282e-03    11  2  10  2
 -1.867800409132e-03    11  2  10  6
 -7.837463743250e-04    11  2  10  10
  5.680492959704e-03    11  2  11  2
  1.677558730640e-02    11  3  2  1
 -3.674996470629e-03    11  3  3  2
 -7.235313166278e-03    11  3  5  2
 -1.156741478856e-03    11  3  6  1
  8.429619519642e-03    11  3  6  3
  1.430409126771e-02    11  3  6  5
  2.195668908650e-04    11  3  7  2
  1.095889193781e-04    11  3  7  6
 -2.632608350490e-03    11  3  9  2
  3.844578954298e-03    11  3  9  6
 -6.806971176773e-04    11  3  10  1
  8.886749533233e-04    11  3  10  3
  9.110884779252e-04    11  3  10  5
 -3.280332184852e-03    11  3  10  7
  1.348385116262e-05    11  3  10  9
 -1.101641805924e-03    11  3  11  1
  3.814819853706e-03    11  3  11  3
 -3.441814114164e-04    11  4  4  2
 -3.924723964332e-04    11  4  6  4
  4.620082506637e-04    11  4  8  2
 -1.283523439848e-04    11  4  8  6
  1.583331107187e-04    11  4  10  4
  6.668469996685e-04    11  4  10  8
  7.625617200517e-04    11  4  11  4
  9.014598773459e-03    11  5  2  1
 -5.964012511302e-03    11  5  3  2
 -1.113788091941e-02    11  5  5  2
 -7.044924487339e-03    11  5  6  1
  8.054061111787e-03    11  5  6  3
  1.354302697991e-02    11  5  6  5
  4.857250616590e-04    11  5  7  2
 -4.339330915154e-04    11  5  7  6
 -2.625389009321e-03    11  5  9  2
  3.087465550376e-03    11  5  9  6
 -7.860408724912e-04    11  5  10  1
  7.688403721794e-04    11  5  10  3
  1.174885832945e-03    11  5  10  5
 -1.829084300621e-03    11  5  10  7
  4.662264099126e-04    11  5  10  9
 -1.576618557379e-03    11  5  11  1
  2.419298364547e-03    11  5  11  3
  3.146726587423e-03    11  5  11  5
  1.119885303215e-02    11  6  1  1
  1.389595498217e-02    11  6  2  2
 -8.754702554857e-03    11  6  3  1
  9.058071927664e-03    11  6  3  3
  5.448781196113e-03    11  6  4  4
 -7.137105491144e-03    11  6  5  1
  8.899257825947e-03    11  6  5  3
  1.913301201524e-02    11  6  5  5
 -1.266503234893e-02    11  6  6  2
  1.507582423416e-02    11  6  6  6
  6.175489870169e-04    11  6  7  1
 -2.639771676231e-04    11  6  7  3
 -5.322650130448e-04    11  6  7  5
  4.957913324735e-04    11  6  7  7
 -4.548163017178e-04    11  6  8  4
  7.068404134631e-06    11  6  8  8
 -1.542798960261e-03    11  6  9  1
  1.935718607015e-03    11  6  9  3
  2.730669344889e-03    11  6  9  5
 -2.923899706882e-03    11  6  9  7
  6.861245493387e-04    11  6  9  9
 -1.436536214250e-03    11  6  10  2
  1.458412607570e-03    11  6  10  6
  4.350803407219e-04    11  6  10  10
 -3.568554986815e-03    11  6  11  2
  3.869300690407e-03    11  6  11  6
 -9.671051916373e-03    11  7  2  1
  3.096761388545e-04    11  7  3  2
  4.941973425985e-03    11  7  5  2
  1.060159885077e-03    11  7  6  1
 -4.802263899224e-03    11  7  6  3
 -8.003749125959e-03    11  7  6  5
  9.663521580704e-04    11  7  7  2
 -1.303080862578e-03    11  7  7  6
  2.870009127742e-03    11  7  9  2
 -3.387801262112e-03    11  7  9  6
  1.179898577303e-04    11  7  10  1
 -5.341914632948e-04    11  7  10  3
 -2.481880693750e-04    11  7  10  5
  8.357288058445e-03    11  7  10  7
  2.630639339561e-03    11  7  10  9
 -6.277116877382e-04    11  7  11  1
 -3.766444134892e-03    11  7  11  3
 -1.395415103173e-03    11  7  11  5
  1.411626073338e-02    11  7  11  7
  2.488802508661e-03    11  8  4  2
 -3.637611154838e-04    11  8  6  4
  9.949598357704e-04    11  8  8  2
 -1.432872942187e-03    11  8  8  6
  5.038508738815e-04    11  8  10  4
  4.377310472510e-03    11  8  10  8
  1.969239692803e-03    11  8  11  4
  1.091289994583e-02    11  8  11  8
 -8.686965680802e-03    11  9  2  1
 -2.679981009837e-03    11  9  3  2
  2.799665527051e-03    11  9  5  2
 -8.344546101465e-04    11  9  6  1
 -3.698263479034e-03    11  9  6  3
 -4.884170423275e-03    11  9  6  5
  1.366939726495e-03    11  9  7  2
 -1.628427494474e-03    11  9  7  6
  3.020626068520e-03    11  9  9  2
 -3.225483668699e-03    11  9  9  6
 -1.314412059761e-04    11  9  10  1
 -4.407315351981e-04    11  9  10  3
  4.533426126683e-05    11  9  10  5
  1.224684418745e-02    11  9  10  7
  2.712798997644e-03    11  9  10  9
 -1.678070280203e-03    11  9  11  1
 -5.108180847245e-03    11  9  11  3
 -1.382203848132e-03    11  9  11  5
  1.548583257251e-02    11  9  11  7
  2.386848745042e-02    11  9  11  9
  2.686257713148e-02    11  10  1  1
  2.738034779816e-02    11  10  2  2
  1.492917629856e-03    11  10  3  1
  2.692370887322e-02    11  10  3  3
  2.646177139513e-02    11  10  4  4
  6.023206435393e-04    11  10  5  1
 -1.604513085442e-03    11  10  5  3
  2.444531362404e-02    11  10  5  5
  1.021621815855e-03    11  10  6  2
  2.619982941305e-02    11  10  6  6
  1.323624237379e-04    11  10  7  1
 -5.800337620246e-04    11  10  7  3
 -7.999568785902e-04    11  10  7  5
  9.178257841356e-03    11  10  7  7
 -8.185534791257e-04    11  10  8  4
  2.031405983422e-02    11  10  8  8
 -2.191161786730e-04    11  10  9  1
  5.045980174439e-04    11  10  9  3
  8.705666355342e-04    11  10  9  5
  7.267091784381e-03    11  10  9  7
  1.891625632926e-02    11  10  9  9
 -1.686346735445e-04    11  10  10  2
  2.561983543690e-04    11  10  10  6
  4.105938927871e-03    11  10  10  10
  7.261862192615e-04    11  10  11  2
 -7.158028817983e-04    11  10  11  6
  8.872228243968e-03    11  10  11  10
  2.168426761872e-01    11  11  1  1
  2.173153998987e-01    11  11  2  2
  1.097114119253e-02    11  11  3  1
  2.216393707659e-01    11  11  3  3
  2.163963414139e-01    11  11  4  4
  3.671830541138e-03    11  11  5  1
 -8.953308180073e-03    11  11  5  3
  2.042853417247e-01    11  11  5  5
  8.806192873650e-03    11  11  6  2
  2.117632229248e-01    11  11  6  6
  4.448403210661e-04    11  11  7  1
 -2.137174230185e-03    11  11  7  3
 -3.017426870094e-03    11  11  7  5
  1.441649586104e-01    11  11  7  7
 -4.638571119888e-03    11  11  8  4
  1.805520115463e-01    11  11  8  8
 -4.291743647787e-04    11  11  9  1
  5.433107003117e-04    11  11  9  3
  1.764053584116e-03    11  11  9  5
  2.391150995696e-02    11  11  9  7
  1.880638796225e-01    11  11  9  9
 -5.352856380842e-04    11  11  10  2
  1.128336167304e-03    11  11  10  6
  1.316693887110e-01    11  11  10  10
  3.690670274723e-03    11  11  11  2
 -2.746470970139e-03    11  11  11  6
  2.532477899331e-02    11  11  11  10
  2.080429526613e-01    11  11  11  11
 -3.740695369591e-02    12  1  1  1
 -3.633296444329e-02    12  1  2  2
 -7.067209839908e-03    12  1  3  1
 -3.787872727175e-02    12  1  3  3
 -3.219223995368e-02    12  1  4  4
 -5.023995376594e-03    12  1  5  1
  1.147246527398e-02    12  1  5  3
 -3.011153735294e-02    12  1  5  5
 -1.627932282635e-02    12  1  6  2
 -3.764154212836e-02    12  1  6  6
 -1.359986410637e-03    12  1  7  1
 -1.300351603941e-03    12  1  7  3
  1.361276789228e-03    12  1  7  5
 -3.021556055877e-04    12  1  7  7
  8.035585518113e-03    12  1  8  4
 -1.152014986376e-03    12  1  8  8
 -2.873582338122e-03    12  1  9  1
 -5.931557405582e-03    12  1  9  3
 -1.114254244714e-03    12  1  9  5
 -1.953727259049e-04    12  1  9  7
 -1.593990706301e-03    12  1  9  9
  6.858991097970e-04    12  1  10  2
 -1.281892558810e-03    12  1  10  6
 -4.829113188102e-04    12  1  10  10
  2.503587350717e-03    12  1  11  2
 -7.700677513002e-04    12  1  11  6
 -3.894948794547e-04    12  1  11  10
 -1.422648470916e-03    12  1  11  11
  4.798732192029e-03    12  1  12  1
 -1.712893224035e-02    12  2  2  1
  5.805688490608e-04    12  2  3  2
  2.909116594352e-03    12  2  5  2
 -5.555530408105e-03    12  2  6  1
 -8.422783189770e-03    12  2  6  3
 -9.500150007070e-03    12  2  6  5
 -1.024477530888e-03    12  2  7  2
  1.908494437166e-04    12  2  7  6
  2.547975679878e-04    12  2  9  2
 -3.132399951112e-03    12  2  9  6
  5.521287874725e-04    12  2  10  1
 -6.499656019653e-04    12  2  10  3
 -7.193359947804e-04    12  2  10  5
 -8.115265933227e-04    12  2  10  7
 -1.317636547083e-04    12  2  10  9
  1.692170501671e-03    12  2  11  1
 -1.077187981544e-03    12  2  11  3
 -9.862039170700e-04    12  2  11  5
 -6.923203094546e-04    12  2  11  7
 -1.441530998238e-03    12  2  11  9
  3.102875888264e-03    12  2  12  2
 -3.169168630068e-02    12  3  1  1
 -2.480145485709e-02    12  3  2  2
 -1.178776917326e-02    12  3  3  1
 -3.943377483387e-02    12  3  3  3
 -3.238072799227e-02    12  3  4  4
 -6.015340127041e-03    12  3  5  1
  1.709232049292e-02    12  3  5  3
 -2.687897559805e-02    12  3  5  5
 -2.065914177794e-02    12  3  6  2
 -3.068966934966e-02    12  3  6  6
 -1.184575251370e-03    12  3  7  1
 -2.660462387181e-03    12  3  7  3
  6.671526574216e-04    12  3  7  5
 -7.050602841631e-04    12  3  7  7
  8.350029768932e-03    12  3  8  4
  1.346374117896e-04    12  3  8  8
 -4.865662418406e-03    12  3  9  1
 -7.165073997014e-03    12  3  9  3
  8.928611270342e-04    12  3  9  5
  3.876565301494e-03    12  3  9  7
  2.004775552611e-03    12  3  9  9
 -1.337152776610e-04    12  3  10  2
 -5.937043513949e-04    12  3  10  6
 -1.229937735953e-03    12  3  10  10
  1.605404659716e-03    12  3  11  2
 -6.627123905051e-05    12  3  11  6
  7.959932131740e-04    12  3  11  10
  3.813088916061e-03    12  3  11  11
  4.428891401834e-03    12  3  12  1
  8.105342915419e-03    12  3  12  3
  5.007194189459e-03    12  4  4  1
 -1.355414680621e-03    12  4  4  3
 -5.586899618625e-04    12  4  5  4
 -1.833825446755e-03    12  4  7  4
  1.217623925092e-03    12  4  8  1
  1.597837332777e-03    12  4  8  3
 -8.898956797569e-04    12  4  8  5
 -7.775474983181e-03    12  4  8  7
 -4.082650813952e-04    12  4  9  4
  2.994723950991e-05    12  4  9  8
  6.898716369727e-03    12  4  12  4
  2.343866765526e-02    12  5  1  1
  2.143733091064e-02    12  5  2  2
  6.069075606086e-03    12  5  3  1
  2.874923652807e-02    12  5  3  3
  2.123945554910e-02    12  5  4  4
  2.640591211959e-03    12  5  5  1
 -9.706574623576e-03    12  5  5  3
  1.989104280271e-02    12  5  5  5
  7.336545224312e-03    12  5  6  2
  2.188360567250e-02    12  5  6  6
  7.642040617093e-04    12  5  7  1
  2.203571817540e-04    12  5  7  3
 -1.609894695613e-03    12  5  7  5
 -3.080115449157e-04    12  5  7  7
 -4.286367371727e-03    12  5  8  4
  3.496349574407e-03    12  5  8  8
  1.143930505803e-03    12  5  9  1
  3.190387345665e-03    12  5  9  3
  6.564969956833e-04    12  5  9  5
  4.249544842835e-03    12  5  9  7
  4.125879671148e-03    12  5  9  9
 -5.285899294904e-04    12  5  10  2
  9.861947940145e-04    12  5  10  6
 -7.577593907866e-04    12  5  10  10
 -7.610416953663e-04    12  5  11  2
  3.420868698259e-04    12  5  11  6
  1.243403077382e-03    12  5  11  10
  5.359706625973e-03    12  5  11  11
 -2.495402209949e-03    12  5  12  1
 -1.037915344707e-03    12  5  12  3
  3.446878910864e-03    12  5  12  5
 -7.597792305995e-03    12  6  2  1
 -6.459646176031e-03    12  6  3  2
 -3.286242147874e-03    12  6  5  2