 &FCI NORB=40 ,NELEC=8 ,MS2=0,
  ORBSYM=1,1,2,1,3,1,2,1,3,1,2,2,1,4,1,3,2,1,2,2,1,3,1,4,1,2,3,1,2,4,3,1,2,1,2,1,3,1,4,1,
  ISYM=1,
 &END
  7.556447868434e-01    1  1  1  1
  1.545025514605e-01    2  1  2  1
  6.847090717847e-01    2  2  1  1
  6.716779113165e-01    2  2  2  2
 -1.897944388934e-02    3  1  1  1
 -1.463598265282e-02    3  1  2  2
  1.248451131403e-01    3  1  3  1
 -1.651224129165e-02    3  2  2  1
  4.068814415646e-02    3  2  3  2
  6.770556818902e-01    3  3  1  1
  6.074347433147e-01    3  3  2  2
  6.598548153321e-02    3  3  3  1
  7.161760636474e-01    3  3  3  3
  1.271561885109e-01    4  1  4  1
  2.971097828926e-02    4  2  4  2
  2.909809932723e-02    4  3  4  1
  4.106129727521e-02    4  3  4  3
  7.050291786435e-01    4  4  1  1
  6.187039700965e-01    4  4  2  2
  3.336857050332e-02    4  4  3  1
  6.498882391842e-01    4  4  3  3
  7.374426939814e-01    4  4  4  4
  1.323402653679e-01    5  1  1  1
  8.374310018698e-02    5  1  2  2
 -2.754155453464e-02    5  1  3  1
  7.801464865551e-02    5  1  3  3
  1.218420070579e-01    5  1  4  4
  1.013817966400e-01    5  1  5  1
 -1.965191011403e-02    5  2  2  1
  1.560039780934e-02    5  2  3  2
  5.361928835569e-02    5  2  5  2
 -1.370136946162e-01    5  3  1  1
 -8.940826007710e-02    5  3  2  2
 -3.238346328754e-02    5  3  3  1
 -1.485413136478e-01    5  3  3  3
 -1.363017159049e-01    5  3  4  4
 -7.735010004317e-02    5  3  5  1
  1.060574013643e-01    5  3  5  3
  3.528082298441e-02    5  4  4  1
 -4.339033733357e-03    5  4  4  3
  2.797072039551e-02    5  4  5  4
  6.851228599733e-01    5  5  1  1
  6.256203050743e-01    5  5  2  2
 -7.585191159821e-02    5  5  3  1
  6.066696981760e-01    5  5  3  3
  6.130882610409e-01    5  5  4  4
  1.188948585071e-01    5  5  5  1
 -1.079937380409e-01    5  5  5  3
  7.102349619307e-01    5  5  5  5
  4.035710498572e-02    6  1  2  1
  2.691501821745e-02    6  1  3  2
  3.872935830101e-02    6  1  5  2
  6.255043968520e-02    6  1  6  1
  1.678174537547e-01    6  2  1  1
  1.308857482742e-01    6  2  2  2
  5.934752445683e-02    6  2  3  1
  1.627453487323e-01    6  2  3  3
  1.765350104602e-01    6  2  4  4
  8.745203690041e-02    6  2  5  1
 -1.067569792747e-01    6  2  5  3
  1.009665630990e-01    6  2  5  5
  1.700521263101e-01    6  2  6  2
  5.944339962927e-02    6  3  2  1
  3.119110316274e-03    6  3  3  2
 -3.303305415819e-02    6  3  5  2
  6.057958900071e-03    6  3  6  1
  4.783679734378e-02    6  3  6  3
  1.650744873960e-02    6  4  4  2
  1.965267203172e-02    6  4  6  4
  9.848690868153e-02    6  5  2  1
 -4.161900217600e-02    6  5  3  2
 -3.706956528445e-02    6  5  5  2
 -5.638744680077e-03    6  5  6  1
  4.075606949477e-02    6  5  6  3
  1.076419096060e-01    6  5  6  5
  6.713246435181e-01    6  6  1  1
  6.562550981107e-01    6  6  2  2
 -3.281435956444e-03    6  6  3  1
  6.148712442005e-01    6  6  3  3
  6.177989869718e-01    6  6  4  4
  8.135237640571e-02    6  6  5  1
 -9.429006138631e-02    6  6  5  3
  6.427471566008e-01    6  6  5  5
  1.426610665819e-01    6  6  6  2
  6.835455199625e-01    6  6  6  6
  1.179950293021e-02    7  1  1  1
  1.155938758720e-02    7  1  2  2
  1.210053962989e-03    7  1  3  1
  1.204676556964e-02    7  1  3  3
  1.001856235860e-02    7  1  4  4
  1.058006355702e-04    7  1  5  1
 -1.962823430206e-03    7  1  5  3
  9.841746767124e-03    7  1  5  5
  3.011496897041e-03    7  1  6  2
  1.173447916135e-02    7  1  6  6
  4.601017662590e-04    7  1  7  1
  4.425113085274e-03    7  2  2  1
 -7.177475723863e-04    7  2  3  2
 -1.429786570655e-03    7  2  5  2
  7.708655428641e-04    7  2  6  1
  2.609497782135e-03    7  2  6  3
  2.720330085642e-03    7  2  6  5
  4.650584643092e-04    7  2  7  2
  8.272052253115e-03    7  3  1  1
  5.923230623124e-03    7  3  2  2
  4.653208803177e-03    7  3  3  1
  1.111013911431e-02    7  3  3  3
  9.231878615515e-03    7  3  4  4
  2.731446351050e-03    7  3  5  1
 -6.497824996329e-03    7  3  5  3
  6.810157654256e-03    7  3  5  5
  7.608288354490e-03    7  3  6  2
  8.042480996618e-03    7  3  6  6
  2.901876493620e-04    7  3  7  1
  9.739205408324e-04    7  3  7  3
 -9.329471041067e-04    7  4  4  1
  5.049076271459e-04    7  4  4  3
 -9.573639748847e-05    7  4  5  4
  5.618099989486e-04    7  4  7  4
 -1.716242602485e-02    7  5  1  1
 -1.530173645966e-02    7  5  2  2
 -2.513713375776e-04    7  5  3  1
 -1.727552517023e-02    7  5  3  3
 -1.502713494850e-02    7  5  4  4
 -3.151623478739e-03    7  5  5  1
  5.019451026498e-03    7  5  5  3
 -1.666347359867e-02    7  5  5  5
 -4.422727419908e-03    7  5  6  2
 -1.585624465465e-02    7  5  6  6
 -4.467639238593e-04    7  5  7  1
 -8.782467914994e-05    7  5  7  3
  9.568072540750e-04    7  5  7  5
  1.075787174510e-03    7  6  2  1
  2.665791776128e-03    7  6  3  2
  9.533723976518e-04    7  6  5  2
  2.549300579512e-03    7  6  6  1
  8.950940919599e-04    7  6  6  3
 -1.531162236991e-03    7  6  6  5
 -2.835464378722e-04    7  6  7  2
  5.805199588550e-04    7  6  7  6
  1.592905082984e-01    7  7  1  1
  1.594264560486e-01    7  7  2  2
 -1.016744541475e-03    7  7  3  1
  1.585881579976e-01    7  7  3  3
  1.584920963876e-01    7  7  4  4
 -1.271746150238e-04    7  7  5  1
  2.645030626473e-04    7  7  5  3
  1.602316958772e-01    7  7  5  5
 -3.775394395984e-04    7  7  6  2
  1.598246695788e-01    7  7  6  6
  1.292190413633e-04    7  7  7  1
  2.935400723971e-04    7  7  7  3
  6.209121681180e-05    7  7  7  5
  1.358534711689e-01    7  7  7  7
 -2.595646310831e-02    8  1  4  1
 -5.919989957683e-03    8  1  4  3
 -9.312776379349e-03    8  1  5  4
 -3.862430794034e-04    8  1  7  4
  6.196518785370e-03    8  1  8  1
 -5.435620885182e-03    8  2  4  2
 -4.841574394647e-03    8  2  6  4
  1.585146119827e-03    8  2  8  2
 -5.346141257791e-03    8  3  4  1
 -7.466749640693e-03    8  3  4  3
  1.911199137753e-03    8  3  5  4
 -4.742979899548e-04    8  3  7  4
  1.434993222055e-03    8  3  8  1
  2.370063404712e-03    8  3  8  3
 -9.793409641227e-02    8  4  1  1
 -7.881145008575e-02    8  4  2  2
 -6.678066369736e-03    8  4  3  1
 -8.550679348084e-02    8  4  3  3
 -1.025879671732e-01    8  4  4  4
 -2.924079499532e-02    8  4  5  1
  3.195588769234e-02    8  4  5  3
 -8.081784075076e-02    8  4  5  5
 -4.139992024971e-02    8  4  6  2
 -8.143474447469e-02    8  4  6  6
 -2.192126398590e-03    8  4  7  1
 -2.560369083817e-03    8  4  7  3
  2.858441726758e-03    8  4  7  5
 -1.063913393160e-03    8  4  7  7
  2.393990947429e-02    8  4  8  4
 -1.307857306174e-02    8  5  4  1
  2.144826102843e-03    8  5  4  3
 -6.876934452930e-03    8  5  5  4
  3.121897598359e-04    8  5  7  4
  2.790294994928e-03    8  5  8  1
 -1.855487986822e-04    8  5  8  3
  2.723077964125e-03    8  5  8  5
 -6.137060518209e-03    8  6  4  2
 -4.525868644826e-03    8  6  6  4
  1.041476690022e-03    8  6  8  2
  1.755813812925e-03    8  6  8  6
 -1.109472272396e-02    8  7  4  1
 -3.300067967337e-03    8  7  4  3
  5.040072629674e-04    8  7  5  4
  2.815592922803e-03    8  7  7  4
 -2.169767766772e-04    8  7  8  1
 -8.604271063615e-04    8  7  8  3
  1.351494808835e-03    8  7  8  5
  2.161866933072e-02    8  7  8  7
  2.464318695485e-01    8  8  1  1
  2.368858207076e-01    8  8  2  2
  8.551244499668e-03    8  8  3  1
  2.439869994757e-01    8  8  3  3
  2.556464557839e-01    8  8  4  4
  1.205402875581e-02    8  8  5  1
 -1.534528779193e-02    8  8  5  3
  2.311486850509e-01    8  8  5  5
  1.955986384828e-02    8  8  6  2
  2.336937011683e-01    8  8  6  6
  6.975975838350e-04    8  8  7  1
 -4.585781774873e-04    8  8  7  3
 -2.735426296489e-03    8  8  7  5
  1.481675972335e-01    8  8  7  7
 -4.644505167193e-03    8  8  8  4
  2.216131506703e-01    8  8  8  8
  2.495715926713e-02    9  1  1  1
  1.634077274978e-02    9  1  2  2
  1.506427685734e-02    9  1  3  1
  2.977069720855e-02    9  1  3  3
  3.229726640327e-02    9  1  4  4
  1.006028232248e-02    9  1  5  1
 -1.690332721236e-02    9  1  5  3
  1.370948141491e-02    9  1  5  5
  2.434932557102e-02    9  1  6  2
  1.970607670414e-02    9  1  6  6
  6.267010094764e-04    9  1  7  1
  1.730602301154e-03    9  1  7  3
 -5.875543898843e-04    9  1  7  5
  7.634920791548e-05    9  1  7  7
 -7.483904397022e-03    9  1  8  4
  3.111729116327e-03    9  1  8  8
  4.856564768825e-03    9  1  9  1
 -8.004262254881e-03    9  2  2  1
  8.607530085223e-03    9  2  3  2
  1.115013705195e-02    9  2  5  2
  1.055609934425e-02    9  2  6  1
 -4.256845403781e-03    9  2  6  3
 -1.399845391022e-02    9  2  6  5
 -3.303365366084e-05    9  2  7  2
  3.406466491759e-04    9  2  7  6
  4.148461774604e-03    9  2  9  2
  5.508816372184e-02    9  3  1  1
  4.967321146441e-02    9  3  2  2
  8.208109315538e-03    9  3  3  1
  5.888271530965e-02    9  3  3  3
  5.183179219604e-02    9  3  4  4
  4.797549760527e-03    9  3  5  1
 -1.535051890056e-02    9  3  5  3
  4.862746804944e-02    9  3  5  5
  1.721285362012e-02    9  3  6  2
  5.364038457429e-02    9  3  6  6
  1.868952121740e-03    9  3  7  1
  2.100958237222e-03    9  3  7  3
 -1.854681729795e-03    9  3  7  5
  9.501094557450e-04    9  3  7  7
 -1.090263537007e-02    9  3  8  4
  4.459792382532e-03    9  3  8  8
  4.121683886351e-03    9  3  9  1
  9.767344305634e-03    9  3  9  3
  1.547191705379e-02    9  4  4  1
  6.664376006126e-03    9  4  4  3
  3.615513048577e-03    9  4  5  4
  1.496259929710e-04    9  4  7  4
 -3.534949375177e-03    9  4  8  1
 -1.976169405505e-03    9  4  8  3
 -1.525654864746e-03    9  4  8  5
 -8.393329666303e-04    9  4  8  7
  3.153366774395e-03    9  4  9  4
  2.162484427634e-02    9  5  1  1
  2.555319339111e-02    9  5  2  2
 -1.358860955318e-02    9  5  3  1
  8.378069766956e-03    9  5  3  3
  1.443202823345e-02    9  5  4  4
  7.078068169066e-05    9  5  5  1
  6.955440116251e-03    9  5  5  3
  2.794505280602e-02    9  5  5  5
 -9.040602636900e-03    9  5  6  2
  2.564368917106e-02    9  5  6  6
  5.349750385164e-04    9  5  7  1
 -5.810904296635e-04    9  5  7  3
 -7.461349436967e-04    9  5  7  5
  6.401076653602e-04    9  5  7  7
 -2.394497226561e-03    9  5  8  4
  1.205923329388e-03    9  5  8  8
 -1.845812827042e-03    9  5  9  1
  2.074999136078e-03    9  5  9  3
  4.719160371138e-03    9  5  9  5
  2.721262040858e-02    9  6  2  1
 -3.207069027232e-03    9  6  3  2
 -1.145533151878e-02    9  6  5  2
  2.064104921445e-03    9  6  6  1
  1.581390050960e-02    9  6  6  3
  2.248723579216e-02    9  6  6  5
  7.651943643292e-04    9  6  7  2
  2.600895948132e-04    9  6  7  6
 -3.050347687369e-03    9  6  9  2
  7.009255393932e-03    9  6  9  6
  6.811058743275e-03    9  7  1  1
  5.450432615200e-03    9  7  2  2
  1.260108361790e-02    9  7  3  1
  1.440067910164e-02    9  7  3  3
  1.024383859464e-02    9  7  4  4
  3.226896177389e-03    9  7  5  1
 -8.484875487358e-03    9  7  5  3
 -4.318018152114e-03    9  7  5  5
  9.319337784702e-03    9  7  6  2
  2.184810658239e-03    9  7  6  6
 -3.818622893708e-05    9  7  7  1
 -1.892823904458e-03    9  7  7  3
 -2.154125303042e-03    9  7  7  5
 -3.375870514474e-03    9  7  7  7
 -7.554385898451e-04    9  7  8  4
  8.862170364875e-03    9  7  8  8
  1.064546019059e-04    9  7  9  1
 -2.092337720127e-03    9  7  9  3
 -1.223870301800e-03    9  7  9  5
  2.459951159335e-02    9  7  9  7
 -4.176743918089e-03    9  8  4  1
 -4.891279229957e-03    9  8  4  3
 -2.031639390441e-03    9  8  5  4
 -4.450754067518e-05    9  8  7  4
  8.722132465443e-04    9  8  8  1
 -1.404264974724e-03    9  8  8  3
 -1.474399086052e-03    9  8  8  5
  3.737261814206e-04    9  8  8  7
  1.601751335925e-03    9  8  9  4
  1.448055360592e-02    9  8  9  8
  2.296571934195e-01    9  9  1  1
  2.253355026753e-01    9  9  2  2
  1.206605067111e-02    9  9  3  1
  2.387656101832e-01    9  9  3  3
  2.304168606287e-01    9  9  4  4
  4.183929444791e-03    9  9  5  1
 -9.965605669090e-03    9  9  5  3
  2.191633890827e-01    9  9  5  5
  1.307416262363e-02    9  9  6  2
  2.229060543647e-01    9  9  6  6
  7.209721053887e-04    9  9  7  1
 -1.271270381426e-03    9  9  7  3
 -2.774272830256e-03    9  9  7  5
  1.478787182966e-01    9  9  7  7
 -6.210768851381e-03    9  9  8  4
  1.876749946314e-01    9  9  8  8
  9.921876574336e-04    9  9  9  1
 -4.421503881738e-04    9  9  9  3
 -1.194307754744e-03    9  9  9  5
  1.741963037646e-02    9  9  9  7
  2.132504641692e-01    9  9  9  9
 -4.471355082051e-03    10  1  2  1
  2.783073721044e-03    10  1  3  2
  2.624835450735e-03    10  1  5  2
  1.625498795778e-03    10  1  6  1
 -1.949318955655e-03    10  1  6  3
 -4.710019277987e-03    10  1  6  5
 -2.360690120682e-04    10  1  7  2
  2.128917875724e-04    10  1  7  6
  8.358702587514e-04    10  1  9  2
 -9.388983953339e-04    10  1  9  6
  3.240292942453e-04    10  1  10  1
 -1.151472115455e-02    10  2  1  1
 -1.244963589080e-02    10  2  2  2
  5.136293945017e-03    10  2  3  1
 -7.690644756576e-03    10  2  3  3
 -7.642396034399e-03    10  2  4  4
  5.470649354495e-04    10  2  5  1
 -1.936756451748e-03    10  2  5  3
 -1.306064794329e-02    10  2  5  5
  3.420218148004e-03    10  2  6  2
 -1.122982436036e-02    10  2  6  6
 -3.504271027251e-04    10  2  7  1
  1.965661934796e-04    10  2  7  3
  4.619360047187e-04    10  2  7  5
 -2.408474513451e-04    10  2  7  7
  1.118038541498e-03    10  2  8  4
 -1.224073709383e-03    10  2  8  8
  6.348963696562e-04    10  2  9  1
 -1.068757961067e-03    10  2  9  3
 -1.493002644389e-03    10  2  9  5
  3.806286983972e-04    10  2  9  7
 -1.229966445409e-03    10  2  9  9
  7.816629721616e-04    10  2  10  2
  5.286251733706e-03    10  3  2  1
 -1.391630056681e-03    10  3  3  2
 -2.498317458757e-03    10  3  5  2
 -3.634579442561e-04    10  3  6  1
  2.986450594479e-03    10  3  6  3
  4.439872290396e-03    10  3  6  5
  2.460302888633e-04    10  3  7  2
 -1.182605245260e-04    10  3  7  6
 -6.709087113674e-04    10  3  9  2
  1.215485094727e-03    10  3  9  6
 -2.660331293748e-04    10  3  10  1
  3.189106137329e-04    10  3  10  3
 -8.376088337609e-05    10  4  4  2
  2.291688801583e-04    10  4  6  4
  8.404009122422e-05    10  4  8  2
 -1.307092342891e-04    10  4  8  6
  6.850156777713e-05    10  4  10  4
  4.976039820226e-03    10  5  2  1
 -2.794919695720e-03    10  5  3  2
 -3.889209887672e-03    10  5  5  2
 -2.094440410568e-03    10  5  6  1
  3.095400248897e-03    10  5  6  3
  6.236131742656e-03    10  5  6  5
  3.395747013174e-04    10  5  7  2
 -3.402451717199e-04    10  5  7  6
 -1.047896156814e-03    10  5  9  2
  1.382455307828e-03    10  5  9  6
 -3.778446645390e-04    10  5  10  1
  3.800425844316e-04    10  5  10  3
  5.885002868963e-04    10  5  10  5
  1.661330816310e-02    10  6  1  1
  1.706773381339e-02    10  6  2  2
 -2.415123583706e-03    10  6  3  1
  1.452484240739e-02    10  6  3  3
  1.344257345911e-02    10  6  4  4
  2.581202728393e-04    10  6  5  1
 -3.239329845541e-04    10  6  5  3
  1.774684531548e-02    10  6  5  5
  3.738667613449e-04    10  6  6  2
  1.791582953924e-02    10  6  6  6
  5.099617565847e-04    10  6  7  1
  2.645580096287e-05    10  6  7  3
 -7.255616736643e-04    10  6  7  5
  2.287070160715e-04    10  6  7  7
 -2.319362443221e-03    10  6  8  4
  2.071911114917e-03    10  6  8  8
  2.979760147734e-05    10  6  9  1
  1.909422797263e-03    10  6  9  3
  1.462038705438e-03    10  6  9  5
  1.042849721528e-05    10  6  9  7
  2.138001337985e-03    10  6  9  9
 -7.629249178574e-04    10  6  10  2
  9.802349555375e-04    10  6  10  6
 -1.101804291602e-02    10  7  2  1
  2.798072782330e-03    10  7  3  2
  8.059186516679e-03    10  7  5  2
  3.063889076823e-03    10  7  6  1
 -6.880486475023e-03    10  7  6  3
 -1.278420835159e-02    10  7  6  5
  1.486033627552e-03    10  7  7  2
 -2.216130145529e-03    10  7  7  6
  2.868667596982e-03    10  7  9  2
 -3.578055230079e-03    10  7  9  6
  1.020175047179e-04    10  7  10  1
  6.590132348502e-05    10  7  10  3
  5.017710773698e-04    10  7  10  5
  3.406830176475e-02    10  7  10  7
  9.495436097607e-04    10  8  4  2
 -4.515498800797e-04    10  8  6  4
  5.121678924016e-04    10  8  8  2
 -7.241785450933e-04    10  8  8  6
  3.210629265912e-04    10  8  10  4
  3.258428800090e-03    10  8  10  8
  2.057021350828e-03    10  9  2  1
 -1.553340868502e-03    10  9  3  2
 -2.104607125894e-03    10  9  5  2
 -1.047856431492e-03    10  9  6  1
  1.756308209358e-03    10  9  6  3
  3.371935699193e-03    10  9  6  5
 -5.702733043061e-06    10  9  7  2
  1.598153058227e-04    10  9  7  6
 -1.132442608917e-04    10  9  9  2
  3.048338953540e-04    10  9  9  6
 -1.031249554972e-04    10  9  10  1
 -1.178032147044e-04    10  9  10  3
 -1.038056155038e-04    10  9  10  5
 -4.371622794944e-03    10  9  10  7
  3.016174269968e-03    10  9  10  9
  1.400849704290e-01    10  10  1  1
  1.418002847506e-01    10  10  2  2
 -3.508469992744e-03    10  10  3  1
  1.375559033062e-01    10  10  3  3
  1.378730920015e-01    10  10  4  4
 -1.233743014082e-03    10  10  5  1
  2.261995502126e-03    10  10  5  3
  1.435420882668e-01    10  10  5  5
 -3.494645107207e-03    10  10  6  2
  1.430997000816e-01    10  10  6  6
  1.149699146878e-04    10  10  7  1
  6.729980713045e-04    10  10  7  3
  5.936672421425e-04    10  10  7  5
  1.291843440576e-01    10  10  7  7
 -1.184425893983e-03    10  10  8  4
  1.270386306802e-01    10  10  8  8
 -2.751860215014e-04    10  10  9  1
  1.655249733965e-03    10  10  9  3
  1.654509288096e-03    10  10  9  5
 -6.659104819883e-03    10  10  9  7
  1.252582969514e-01    10  10  9  9
  6.451713978206e-05    10  10  10  2
 -3.133400141094e-04    10  10  10  6
  1.367692725755e-01    10  10  10  10
 -1.181463295234e-02    11  1  2  1
  7.004107631014e-03    11  1  3  2
  3.876806053830e-03    11  1  5  2
  9.486067719979e-04    11  1  6  1
 -4.444455880226e-03    11  1  6  3
 -1.180975787886e-02    11  1  6  5
 -6.893831567767e-04    11  1  7  2
  5.049079212793e-04    11  1  7  6
  1.205476891146e-03    11  1  9  2
 -2.068775572728e-03    11  1  9  6
  7.428698078842e-04    11  1  10  1
 -5.702146861314e-04    11  1  10  3
 -8.109661197294e-04    11  1  10  5
  3.878936498299e-05    11  1  10  7
 -5.105250851498e-04    11  1  10  9
  2.194831336955e-03    11  1  11  1
 -3.334967812112e-02    11  2  1  1
 -3.302709251754e-02    11  2  2  2
  1.468461616929e-02    11  2  3  1
 -2.120277861807e-02    11  2  3  3
 -2.276923519803e-02    11  2  4  4
 -3.864869939433e-03    11  2  5  1
 -6.670843564356e-04    11  2  5  3
 -3.867721250339e-02    11  2  5  5
  9.085890247983e-04    11  2  6  2
 -3.366669989507e-02    11  2  6  6
 -1.028511221155e-03    11  2  7  1
 -2.624170700457e-04    11  2  7  3
  1.037598198619e-03    11  2  7  5
 -5.620224117680e-04    11  2  7  7
  4.812231657965e-03    11  2  8  4
 -9.240466405662e-04    11  2  8  8
  3.229762932032e-04    11  2  9  1
 -3.886224415564e-03    11  2  9  3
 -3.512540962222e-03    11  2  9  5
  3.647866939819e-03    11  2  9  7
  2.144999971141e-04    11  2  9  9
  1.797516573281e-03    11  2  10  2
 -1.867800409131e-03    11  2  10  6
 -7.837463743259e-04    11  2  10  10
  5.680492959704e-03    11  2  11  2
  1.677558730640e-02    11  3  2  1
 -3.674996470629e-03    11  3  3  2
 -7.235313166278e-03    11  3  5  2
 -1.156741478856e-03    11  3  6  1
  8.429619519642e-03    11  3  6  3
  1.430409126771e-02    11  3  6  5
  2.195668908652e-04    11  3  7  2
  1.095889193776e-04    11  3  7  6
 -2.632608350489e-03    11  3  9  2
  3.844578954298e-03    11  3  9  6
 -6.806971176773e-04    11  3  10  1
  8.886749533230e-04    11  3  10  3
  9.110884779248e-04    11  3  10  5
 -3.280332184852e-03    11  3  10  7
  1.348385116286e-05    11  3  10  9
 -1.101641805924e-03    11  3  11  1
  3.814819853706e-03    11  3  11  3
 -3.441814114163e-04    11  4  4  2
 -3.924723964332e-04    11  4  6  4
  4.620082506637e-04    11  4  8  2
 -1.283523439848e-04    11  4  8  6
  1.583331107188e-04    11  4  10  4
  6.668469996681e-04    11  4  10  8
  7.625617200516e-04    11  4  11  4
  9.014598773459e-03    11  5  2  1
 -5.964012511302e-03    11  5  3  2
 -1.113788091941e-02    11  5  5  2
 -7.044924487338e-03    11  5  6  1
  8.054061111787e-03    11  5  6  3
  1.354302697991e-02    11  5  6  5
  4.857250616592e-04    11  5  7  2
 -4.339330915159e-04    11  5  7  6
 -2.625389009321e-03    11  5  9  2
  3.087465550376e-03    11  5  9  6
 -7.860408724911e-04    11  5  10  1
  7.688403721794e-04    11  5  10  3
  1.174885832945e-03    11  5  10  5
 -1.829084300621e-03    11  5  10  7
  4.662264099121e-04    11  5  10  9
 -1.576618557379e-03    11  5  11  1
  2.419298364546e-03    11  5  11  3
  3.146726587423e-03    11  5  11  5
  1.119885303215e-02    11  6  1  1
  1.389595498217e-02    11  6  2  2
 -8.754702554856e-03    11  6  3  1
  9.058071927665e-03    11  6  3  3
  5.448781196114e-03    11  6  4  4
 -7.137105491143e-03    11  6  5  1
  8.899257825946e-03    11  6  5  3
  1.913301201524e-02    11  6  5  5
 -1.266503234893e-02    11  6  6  2
  1.507582423416e-02    11  6  6  6
  6.175489870167e-04    11  6  7  1
 -2.639771676231e-04    11  6  7  3
 -5.322650130450e-04    11  6  7  5
  4.957913324728e-04    11  6  7  7
 -4.548163017180e-04    11  6  8  4
  7.068404134795e-06    11  6  8  8
 -1.542798960261e-03    11  6  9  1
  1.935718607015e-03    11  6  9  3
  2.730669344889e-03    11  6  9  5
 -2.923899706882e-03    11  6  9  7
  6.861245493357e-04    11  6  9  9
 -1.436536214250e-03    11  6  10  2
  1.458412607570e-03    11  6  10  6
  4.350803407238e-04    11  6  10  10
 -3.568554986815e-03    11  6  11  2
  3.869300690407e-03    11  6  11  6
 -9.671051916372e-03    11  7  2  1
  3.096761388551e-04    11  7  3  2
  4.941973425986e-03    11  7  5  2
  1.060159885077e-03    11  7  6  1
 -4.802263899224e-03    11  7  6  3
 -8.003749125960e-03    11  7  6  5
  9.663521580701e-04    11  7  7  2
 -1.303080862578e-03    11  7  7  6
  2.870009127743e-03    11  7  9  2
 -3.387801262113e-03    11  7  9  6
  1.179898577302e-04    11  7  10  1
 -5.341914632948e-04    11  7  10  3
 -2.481880693758e-04    11  7  10  5
  8.357288058447e-03    11  7  10  7
  2.630639339559e-03    11  7  10  9
 -6.277116877381e-04    11  7  11  1
 -3.766444134892e-03    11  7  11  3
 -1.395415103173e-03    11  7  11  5
  1.411626073338e-02    11  7  11  7
  2.488802508661e-03    11  8  4  2
 -3.637611154838e-04    11  8  6  4
  9.949598357705e-04    11  8  8  2
 -1.432872942187e-03    11  8  8  6
  5.038508738815e-04    11  8  10  4
  4.377310472510e-03    11  8  10  8
  1.969239692803e-03    11  8  11  4
  1.091289994583e-02    11  8  11  8
 -8.686965680808e-03    11  9  2  1
 -2.679981009837e-03    11  9  3  2
  2.799665527054e-03    11  9  5  2
 -8.344546101467e-04    11  9  6  1
 -3.698263479038e-03    11  9  6  3
 -4.884170423280e-03    11  9  6  5
  1.366939726495e-03    11  9  7  2
 -1.628427494475e-03    11  9  7  6
  3.020626068522e-03    11  9  9  2
 -3.225483668703e-03    11  9  9  6
 -1.314412059756e-04    11  9  10  1
 -4.407315351978e-04    11  9  10  3
  4.533426126618e-05    11  9  10  5
  1.224684418746e-02    11  9  10  7
  2.712798997640e-03    11  9  10  9
 -1.678070280203e-03    11  9  11  1
 -5.108180847248e-03    11  9  11  3
 -1.382203848133e-03    11  9  11  5
  1.548583257251e-02    11  9  11  7
  2.386848745043e-02    11  9  11  9
  2.686257713147e-02    11  10  1  1
  2.738034779815e-02    11  10  2  2
  1.492917629855e-03    11  10  3  1
  2.692370887322e-02    11  10  3  3
  2.646177139513e-02    11  10  4  4
  6.023206435390e-04    11  10  5  1
 -1.604513085441e-03    11  10  5  3
  2.444531362404e-02    11  10  5  5
  1.021621815854e-03    11  10  6  2
  2.619982941305e-02    11  10  6  6
  1.323624237373e-04    11  10  7  1
 -5.800337620236e-04    11  10  7  3
 -7.999568785886e-04    11  10  7  5
  9.178257841348e-03    11  10  7  7
 -8.185534791261e-04    11  10  8  4
  2.031405983422e-02    11  10  8  8
 -2.191161786730e-04    11  10  9  1
  5.045980174435e-04    11  10  9  3
  8.705666355332e-04    11  10  9  5
  7.267091784373e-03    11  10  9  7
  1.891625632925e-02    11  10  9  9
 -1.686346735438e-04    11  10  10  2
  2.561983543673e-04    11  10  10  6
  4.105938927880e-03    11  10  10  10
  7.261862192603e-04    11  10  11  2
 -7.158028817969e-04    11  10  11  6
  8.872228243951e-03    11  10  11  10
  2.168426761872e-01    11  11  1  1
  2.173153998987e-01    11  11  2  2
  1.097114119253e-02    11  11  3  1
  2.216393707659e-01    11  11  3  3
  2.163963414139e-01    11  11  4  4
  3.671830541138e-03    11  11  5  1
 -8.953308180075e-03    11  11  5  3
  2.042853417247e-01    11  11  5  5
  8.806192873652e-03    11  11  6  2
  2.117632229248e-01    11  11  6  6
  4.448403210655e-04    11  11  7  1
 -2.137174230186e-03    11  11  7  3
 -3.017426870097e-03    11  11  7  5
  1.441649586104e-01    11  11  7  7
 -4.638571119886e-03    11  11  8  4
  1.805520115463e-01    11  11  8  8
 -4.291743647775e-04    11  11  9  1
  5.433107003103e-04    11  11  9  3
  1.764053584113e-03    11  11  9  5
  2.391150995698e-02    11  11  9  7
  1.880638796226e-01    11  11  9  9
 -5.352856380857e-04    11  11  10  2
  1.128336167306e-03    11  11  10  6
  1.316693887110e-01    11  11  10  10
  3.690670274723e-03    11  11  11  2
 -2.746470970137e-03    11  11  11  6
  2.532477899332e-02    11  11  11  10
  2.080429526613e-01    11  11  11  11
 -3.740695369590e-02    12  1  1  1
 -3.633296444329e-02    12  1  2  2
 -7.067209839901e-03    12  1  3  1
 -3.787872727174e-02    12  1  3  3
 -3.219223995367e-02    12  1  4  4
 -5.023995376587e-03    12  1  5  1
  1.147246527397e-02    12  1  5  3
 -3.011153735293e-02    12  1  5  5
 -1.627932282634e-02    12  1  6  2
 -3.764154212836e-02    12  1  6  6
 -1.359986410637e-03    12  1  7  1
 -1.300351603940e-03    12  1  7  3
  1.361276789228e-03    12  1  7  5
 -3.021556055910e-04    12  1  7  7
  8.035585518109e-03    12  1  8  4
 -1.152014986374e-03    12  1  8  8
 -2.873582338122e-03    12  1  9  1
 -5.931557405583e-03    12  1  9  3
 -1.114254244715e-03    12  1  9  5
 -1.953727259074e-04    12  1  9  7
 -1.593990706304e-03    12  1  9  9
  6.858991097979e-04    12  1  10  2
 -1.281892558811e-03    12  1  10  6
 -4.829113188141e-04    12  1  10  10
  2.503587350717e-03    12  1  11  2
 -7.700677513011e-04    12  1  11  6
 -3.894948794515e-04    12  1  11  10
 -1.422648470918e-03    12  1  11  11
  4.798732192027e-03    12  1  12  1
 -1.712893224037e-02    12  2  2  1
  5.805688490677e-04    12  2  3  2
  2.909116594364e-03    12  2  5  2
 -5.555530408099e-03    12  2  6  1
 -8.422783189779e-03    12  2  6  3
 -9.500150007087e-03    12  2  6  5
 -1.024477530887e-03    12  2  7  2
  1.908494437167e-04    12  2  7  6
  2.547975679905e-04    12  2  9  2
 -3.132399951117e-03    12  2  9  6
  5.521287874733e-04    12  2  10  1
 -6.499656019661e-04    12  2  10  3
 -7.193359947821e-04    12  2  10  5
 -8.115265933200e-04    12  2  10  7
 -1.317636547117e-04    12  2  10  9
  1.692170501673e-03    12  2  11  1
 -1.077187981547e-03    12  2  11  3
 -9.862039170716e-04    12  2  11  5
 -6.923203094509e-04    12  2  11  7
 -1.441530998234e-03    12  2  11  9
  3.102875888268e-03    12  2  12  2
 -3.169168630066e-02    12  3  1  1
 -2.480145485707e-02    12  3  2  2
 -1.178776917325e-02    12  3  3  1
 -3.943377483384e-02    12  3  3  3
 -3.238072799225e-02    12  3  4  4
 -6.015340127041e-03    12  3  5  1
  1.709232049291e-02    12  3  5  3
 -2.687897559803e-02    12  3  5  5
 -2.065914177794e-02    12  3  6  2
 -3.068966934964e-02    12  3  6  6
 -1.184575251368e-03    12  3  7  1
 -2.660462387179e-03    12  3  7  3
  6.671526574207e-04    12  3  7  5
 -7.050602841612e-04    12  3  7  7
  8.350029768928e-03    12  3  8  4
  1.346374117923e-04    12  3  8  8
 -4.865662418406e-03    12  3  9  1
 -7.165073997013e-03    12  3  9  3
  8.928611270362e-04    12  3  9  5
  3.876565301496e-03    12  3  9  7
  2.004775552618e-03    12  3  9  9
 -1.337152776619e-04    12  3  10  2
 -5.937043513934e-04    12  3  10  6
 -1.229937735952e-03    12  3  10  10
  1.605404659715e-03    12  3  11  2
 -6.627123905062e-05    12  3  11  6
  7.959932131793e-04    12  3  11  10
  3.813088916058e-03    12  3  11  11
  4.428891401830e-03    12  3  12  1
  8.105342915416e-03    12  3  12  3
  5.007194189469e-03    12  4  4  1
 -1.355414680618e-03    12  4  4  3
 -5.586899618604e-04    12  4  5  4
 -1.833825446755e-03    12  4  7  4
  1.217623925090e-03    12  4  8  1
  1.597837332776e-03    12  4  8  3
 -8.898956797582e-04    12  4  8  5
 -7.775474983182e-03    12  4  8  7
 -4.082650813968e-04    12  4  9  4
  2.994723950189e-05    12  4  9  8
  6.898716369729e-03    12  4  12  4
  2.343866765529e-02    12  5  1  1
  2.143733091066e-02    12  5  2  2
  6.069075606081e-03    12  5  3  1
  2.874923652809e-02    12  5  3  3
  2.123945554912e-02    12  5  4  4
  2.640591211965e-03    12  5  5  1
 -9.706574623580e-03    12  5  5  3
  1.989104280274e-02    12  5  5  5
  7.336545224312e-03    12  5  6  2
  2.188360567253e-02    12  5  6  6
  7.642040617101e-04    12  5  7  1
  2.203571817541e-04    12  5  7  3
 -1.609894695613e-03    12  5  7  5
 -3.080115449099e-04    12  5  7  7
 -4.286367371732e-03    12  5  8  4
  3.496349574408e-03    12  5  8  8
  1.143930505804e-03    12  5  9  1
  3.190387345668e-03    12  5  9  3
  6.564969956864e-04    12  5  9  5
  4.249544842841e-03    12  5  9  7
  4.125879671158e-03    12  5  9  9
 -5.285899294922e-04    12  5  10  2
  9.861947940172e-04    12  5  10  6
 -7.577593907850e-04    12  5  10  10
 -7.610416953671e-04    12  5  11  2
  3.420868698249e-04    12  5  11  6
  1.243403077392e-03    12  5  11  10
  5.359706625968e-03    12  5  11  11
 -2.495402209950e-03    12  5  12  1
 -1.037915344703e-03    12  5  12  3
  3.446878910871e-03    12  5  12  5
 -7.597792305974e-03    12  6  2  1
 -6.459646176037e-03    12  6  3  2
 -3.286242147886e-03    12  6  5  2