 &FCI NORB=26 ,NELEC=10 ,MS2=0,
  ORBSYM=1,5,1,5,1,3,2,6,7,5,1,3,2,1,6,7,5,5,1,4,3,2,8,5,1,6,
  ISYM=1,
 &END
  8.417763575792e-01    1  1  1  1
  4.898089514541e-02    2  1  2  1
  5.240773555471e-01    2  2  1  1
  5.373865855130e-01    2  2  2  2
  1.462487132211e-01    3  1  1  1
  7.728464717662e-03    3  1  2  2
  6.523374852331e-02    3  1  3  1
 -8.708229623303e-02    3  2  2  1
  2.098949870107e-01    3  2  3  2
  5.730988291595e-01    3  3  1  1
  5.419179004025e-01    3  3  2  2
  3.494104998757e-02    3  3  3  1
  5.636548379052e-01    3  3  3  3
  1.040630337684e-01    4  1  4  1
  4.165900492971e-02    4  2  4  2
 -1.220052008308e-02    4  3  4  1
  2.456390590236e-02    4  3  4  3
  6.510022064941e-01    4  4  1  1
  4.999465362483e-01    4  4  2  2
  6.423611157043e-02    4  4  3  1
  5.125625006927e-01    4  4  3  3
  5.930776835770e-01    4  4  4  4
  1.040630337684e-01    5  1  5  1
  4.165900492971e-02    5  2  5  2
 -1.220052008308e-02    5  3  5  1
  2.456390590236e-02    5  3  5  3
  2.403125692108e-02    5  4  5  4
  6.510022064941e-01    5  5  1  1
  4.999465362483e-01    5  5  2  2
  6.423611157043e-02    5  5  3  1
  5.125625006927e-01    5  5  3  3
  5.450151697349e-01    5  5  4  4
  5.930776835770e-01    5  5  5  5
  3.775185481925e-02    6  1  5  2
  4.434925559388e-02    6  1  6  1
  6.803903695866e-02    6  2  5  1
 -3.416997614872e-02    6  2  5  3
  7.692142350626e-02    6  2  6  2
 -3.395629642119e-02    6  3  5  2
 -2.197822611206e-02    6  3  6  1
  3.603067688974e-02    6  3  6  3
  1.781553197340e-02    6  4  6  4
  8.774143966584e-02    6  5  2  1
 -1.482818031297e-01    6  5  3  2
  1.820396938353e-01    6  5  6  5
  6.561609712438e-01    6  6  1  1
  5.516156476602e-01    6  6  2  2
  5.040151135864e-02    6  6  3  1
  5.602848079595e-01    6  6  3  3
  5.661657645050e-01    6  6  4  4
  6.107613040168e-01    6  6  5  5
  6.662785215689e-01    6  6  6  6
  3.775185481925e-02    7  1  4  2
  4.434925559388e-02    7  1  7  1
  6.803903695866e-02    7  2  4  1
 -3.416997614872e-02    7  2  4  3
  7.692142350626e-02    7  2  7  2
 -3.395629642119e-02    7  3  4  2
 -2.197822611206e-02    7  3  7  1
  3.603067688974e-02    7  3  7  3
  8.774143966584e-02    7  4  2  1
 -1.482818031297e-01    7  4  3  2
  1.464086298886e-01    7  4  6  5
  1.820396938353e-01    7  4  7  4
  1.781553197340e-02    7  5  6  4
  1.781553197340e-02    7  5  7  5
  2.229776975592e-02    7  6  5  4
  2.676207764616e-02    7  6  7  6
  6.561609712438e-01    7  7  1  1
  5.516156476602e-01    7  7  2  2
  5.040151135864e-02    7  7  3  1
  5.602848079595e-01    7  7  3  3
  6.107613040168e-01    7  7  4  4
  5.661657645050e-01    7  7  5  5
  6.127543662765e-01    7  7  6  6
  6.662785215689e-01    7  7  7  7
  5.815119524865e-02    8  1  2  1
 -6.540016900439e-02    8  1  3  2
  1.154079399946e-01    8  1  6  5
  1.154079399946e-01    8  1  7  4
  1.336877587723e-01    8  1  8  1
  5.948260369857e-02    8  2  1  1
 -2.187786864104e-02    8  2  2  2
  2.438404366502e-02    8  2  3  1
 -2.366569523605e-02    8  2  3  3
  3.474195391205e-02    8  2  4  4
  3.474195391205e-02    8  2  5  5
  2.122883178089e-02    8  2  6  6
  2.122883178089e-02    8  2  7  7
  3.689436621756e-02    8  2  8  2
  4.894121695625e-02    8  3  2  1
 -1.093103110205e-01    8  3  3  2
  8.982599118955e-02    8  3  6  5
  8.982599118955e-02    8  3  7  4
  7.605119966996e-02    8  3  8  1
  8.849809543435e-02    8  3  8  3
  2.295581741433e-02    8  4  4  2
  3.601781657696e-02    8  4  7  1
 -4.755369992161e-03    8  4  7  3
  3.632350306832e-02    8  4  8  4
  2.295581741433e-02    8  5  5  2
  3.601781657696e-02    8  5  6  1
 -4.755369992161e-03    8  5  6  3
  3.632350306832e-02    8  5  8  5
  6.462488690977e-02    8  6  5  1
 -5.388744155671e-04    8  6  5  3
  3.613762508652e-02    8  6  6  2
  5.212189182118e-02    8  6  8  6
  6.462488690977e-02    8  7  4  1
 -5.388744155671e-04    8  7  4  3
  3.613762508652e-02    8  7  7  2
  5.212189182118e-02    8  7  8  7
  8.157849199931e-01    8  8  1  1
  5.709336396117e-01    8  8  2  2
  1.244423559913e-01    8  8  3  1
  6.177038084176e-01    8  8  3  3
  6.524069292023e-01    8  8  4  4
  6.524069292023e-01    8  8  5  5
  6.923084350502e-01    8  8  6  6
  6.923084350502e-01    8  8  7  7
  3.353852448170e-02    8  8  8  2
  8.591832621245e-01    8  8  8  8
 -9.184872549892e-02    9  1  1  1
 -2.348808682485e-02    9  1  2  2
 -4.074719612207e-02    9  1  3  1
 -4.536794885046e-02    9  1  3  3
 -3.536644775779e-02    9  1  4  4
 -3.536644775779e-02    9  1  5  5
 -4.170812373249e-02    9  1  6  6
 -4.170812373249e-02    9  1  7  7
 -4.383279763458e-03    9  1  8  2
 -9.441784062223e-02    9  1  8  8
  3.893779193065e-02    9  1  9  1
  1.051003158631e-03    9  2  2  1
  9.571888101744e-03    9  2  3  2
  6.940730396414e-03    9  2  6  5
  6.940730396414e-03    9  2  7  4
  8.042109814982e-03    9  2  8  1
 -1.950825357922e-03    9  2  8  3
  1.589950002424e-02    9  2  9  2
 -1.300631717949e-01    9  3  1  1
 -4.659537336598e-02    9  3  2  2
 -3.850567577208e-02    9  3  3  1
 -5.958680218345e-02    9  3  3  3
 -8.394005961746e-02    9  3  4  4
 -8.394005961746e-02    9  3  5  5
 -8.704141032749e-02    9  3  6  6
 -8.704141032749e-02    9  3  7  7
 -1.586796590989e-02    9  3  8  2
 -1.298234528112e-01    9  3  8  8
  2.250226847502e-02    9  3  9  1
  4.512650104960e-02    9  3  9  3
  2.395420688296e-02    9  4  4  1
 -1.079384776432e-02    9  4  4  3
  2.016908371485e-02    9  4  7  2
  1.020786865219e-02    9  4  8  7
  1.939341702768e-02    9  4  9  4
  2.395420688296e-02    9  5  5  1
 -1.079384776432e-02    9  5  5  3
  2.016908371485e-02    9  5  6  2
  1.020786865219e-02    9  5  8  6
  1.939341702768e-02    9  5  9  5
  7.172589944722e-03    9  6  5  2
  4.273133726548e-03    9  6  6  1
 -7.315840439248e-03    9  6  6  3
  1.130967946965e-03    9  6  8  5
  5.339958216827e-03    9  6  9  6
  7.172589944722e-03    9  7  4  2
  4.273133726548e-03    9  7  7  1
 -7.315840439248e-03    9  7  7  3
  1.130967946965e-03    9  7  8  4
  5.339958216827e-03    9  7  9  7
 -1.147367912268e-02    9  8  2  1
  1.139935974603e-02    9  8  3  2
 -2.832332124604e-02    9  8  6  5
 -2.832332124604e-02    9  8  7  4
 -4.739231238254e-02    9  8  8  1
 -3.308081202333e-02    9  8  8  3
 -7.459841287207e-03    9  8  9  2
  2.948743906661e-02    9  8  9  8
  4.671929451375e-01    9  9  1  1
  3.948030255780e-01    9  9  2  2
  3.626956251516e-02    9  9  3  1
  4.095922560626e-01    9  9  3  3
  4.175323439254e-01    9  9  4  4
  4.175323439254e-01    9  9  5  5
  4.230350075925e-01    9  9  6  6
  4.230350075925e-01    9  9  7  7
  7.569877183158e-03    9  9  8  2
  4.689546040819e-01    9  9  8  8
 -2.384387500811e-02    9  9  9  1
 -3.415207518547e-02    9  9  9  3
  3.690136829261e-01    9  9  9  9
  4.002973639664e-02    10  1  4  1
  4.130364370028e-03    10  1  4  3
  2.112595575145e-02    10  1  7  2
  3.042075301349e-02    10  1  8  7
 -1.934189882331e-03    10  1  9  4
  2.771181820222e-02    10  1  10  1
  7.552798565445e-03    10  2  4  2
  1.087800738702e-02    10  2  7  1
 -4.568703429450e-03    10  2  7  3
  8.211758507026e-03    10  2  8  4
  2.192830830478e-03    10  2  9  7
  1.127916952804e-02    10  2  10  2
  1.951119292610e-02    10  3  4  1
  8.465658217603e-04    10  3  4  3
  6.810189970733e-03    10  3  7  2
  1.271062443934e-02    10  3  8  7
  3.153204349422e-03    10  3  9  4
  4.015403556465e-03    10  3  10  1
  1.257437882120e-02    10  3  10  3
  1.631697714889e-01    10  4  1  1
  8.807030273409e-02    10  4  2  2
  3.800318820519e-02    10  4  3  1
  1.003029861175e-01    10  4  3  3
  1.174162879499e-01    10  4  4  4
  1.089032868540e-01    10  4  5  5
  1.266460599888e-01    10  4  6  6
  1.410295233522e-01    10  4  7  7
  1.239052976759e-02    10  4  8  2
  1.776389248051e-01    10  4  8  8
 -3.237980886102e-02    10  4  9  1
 -3.827952104503e-02    10  4  9  3
  4.968379669629e-02    10  4  9  9
  7.529298465119e-02    10  4  10  4
  4.256500547917e-03    10  5  5  4
  7.191731681691e-03    10  5  7  6
  8.031741086735e-03    10  5  10  5
  8.101035899955e-03    10  6  6  4
  8.101035899955e-03    10  6  7  5
  7.436674006250e-03    10  6  10  6
  4.061623210891e-02    10  7  2  1
 -5.889491620888e-02    10  7  3  2
  7.504152904463e-02    10  7  6  5
  9.124360084454e-02    10  7  7  4
  7.233843123975e-02    10  7  8  1
  5.131525936464e-02    10  7  8  3
  9.650340264690e-03    10  7  9  2
 -2.870358970760e-02    10  7  9  8
  6.762749435322e-02    10  7  10  7
  1.295995383761e-02    10  8  4  2
  2.373793051082e-02    10  8  7  1
 -6.605639671712e-04    10  8  7  3
  2.464157833487e-02    10  8  8  4
 -2.728017938975e-03    10  8  9  7
  6.678275434896e-03    10  8  10  2
  1.988835630860e-02    10  8  10  8
 -2.589901503093e-02    10  9  4  1
 -2.680504439644e-04    10  9  4  3
 -9.933299660817e-03    10  9  7  2
 -1.685149374693e-02    10  9  8  7
 -1.289984974990e-02    10  9  9  4
 -4.620312662475e-03    10  9  10  1
 -8.016463107478e-03    10  9  10  3
  1.918037340237e-02    10  9  10  9
  5.086636458271e-01    10  10  1  1
  4.149404369917e-01    10  10  2  2
  4.089532529323e-02    10  10  3  1
  4.241622774321e-01    10  10  3  3
  4.741606964163e-01    10  10  4  4
  4.429788063918e-01    10  10  5  5
  4.591020146410e-01    10  10  6  6
  4.873310261342e-01    10  10  7  7
  2.070835361197e-02    10  10  8  2
  5.168783391473e-01    10  10  8  8
 -2.350999558265e-02    10  10  9  1
 -5.728224465975e-02    10  10  9  3
  3.649283483133e-01    10  10  9  9
  6.746208413791e-02    10  10  10  4
  4.159519112094e-01    10  10  10  10
  4.002973639664e-02    11  1  5  1
  4.130364370028e-03    11  1  5  3
  2.112595575145e-02    11  1  6  2
  3.042075301349e-02    11  1  8  6
 -1.934189882331e-03    11  1  9  5
  2.771181820222e-02    11  1  11  1
  7.552798565445e-03    11  2  5  2
  1.087800738702e-02    11  2  6  1
 -4.568703429450e-03    11  2  6  3
  8.211758507026e-03    11  2  8  5
  2.192830830478e-03    11  2  9  6
  1.127916952804e-02    11  2  11  2
  1.951119292610e-02    11  3  5  1
  8.465658217603e-04    11  3  5  3
  6.810189970733e-03    11  3  6  2
  1.271062443934e-02    11  3  8  6
  3.153204349422e-03    11  3  9  5
  4.015403556465e-03    11  3  11  1
  1.257437882120e-02    11  3  11  3
  4.256500547917e-03    11  4  5  4
  7.191731681691e-03    11  4  7  6
  8.031741086735e-03    11  4  10  5
  8.031741086735e-03    11  4  11  4
  1.631697714889e-01    11  5  1  1
  8.807030273409e-02    11  5  2  2
  3.800318820518e-02    11  5  3  1
  1.003029861175e-01    11  5  3  3
  1.089032868540e-01    11  5  4  4
  1.174162879499e-01    11  5  5  5
  1.410295233522e-01    11  5  6  6
  1.266460599888e-01    11  5  7  7
  1.239052976759e-02    11  5  8  2
  1.776389248051e-01    11  5  8  8
 -3.237980886102e-02    11  5  9  1
 -3.827952104503e-02    11  5  9  3
  4.968379669629e-02    11  5  9  9
  5.922950247772e-02    11  5  10  4
  6.961652276086e-02    11  5  10  10
  7.529298465119e-02    11  5  11  5
  4.061623210892e-02    11  6  2  1
 -5.889491620888e-02    11  6  3  2
  9.124360084454e-02    11  6  6  5
  7.504152904463e-02    11  6  7  4
  7.233843123975e-02    11  6  8  1
  5.131525936464e-02    11  6  8  3
  9.650340264690e-03    11  6  9  2
 -2.870358970760e-02    11  6  9  8
  5.275414634072e-02    11  6  10  7
  6.762749435322e-02    11  6  11  6
  8.101035899955e-03    11  7  6  4
  8.101035899955e-03    11  7  7  5
  7.436674006250e-03    11  7  10  6
  7.436674006250e-03    11  7  11  7
  1.295995383761e-02    11  8  5  2
  2.373793051082e-02    11  8  6  1
 -6.605639671712e-04    11  8  6  3
  2.464157833487e-02    11  8  8  5
 -2.728017938975e-03    11  8  9  6
  6.678275434896e-03    11  8  11  2
  1.988835630860e-02    11  8  11  8
 -2.589901503093e-02    11  9  5  1
 -2.680504439644e-04    11  9  5  3
 -9.933299660817e-03    11  9  6  2
 -1.685149374693e-02    11  9  8  6
 -1.289984974990e-02    11  9  9  5
 -4.620312662475e-03    11  9  11  1
 -8.016463107478e-03    11  9  11  3
  1.918037340237e-02    11  9  11  9
  1.559094501223e-02    11  10  5  4
  1.411450574664e-02    11  10  7  6
 -1.077219311471e-03    11  10  10  5
 -1.077219311471e-03    11  10  11  4
  1.666920698763e-02    11  10  11  10
  5.086636458271e-01    11  11  1  1
  4.149404369917e-01    11  11  2  2
  4.089532529323e-02    11  11  3  1
  4.241622774321e-01    11  11  3  3
  4.429788063918e-01    11  11  4  4
  4.741606964163e-01    11  11  5  5
  4.873310261342e-01    11  11  6  6
  4.591020146410e-01    11  11  7  7
  2.070835361197e-02    11  11  8  2
  5.168783391473e-01    11  11  8  8
 -2.350999558265e-02    11  11  9  1
 -5.728224465975e-02    11  11  9  3
  3.649283483133e-01    11  11  9  9
  6.961652276086e-02    11  11  10  4
  3.826134972342e-01    11  11  10  10
  6.746208413791e-02    11  11  11  5
  4.159519112094e-01    11  11  11  11
  8.239775848400e-02    12  1  1  1
  4.932990814380e-02    12  1  2  2
  2.040275632862e-02    12  1  3  1
  5.806896547587e-02    12  1  3  3
  5.227884762833e-02    12  1  4  4
  5.227884762833e-02    12  1  5  5
  6.733059488207e-02    12  1  6  6
  6.733059488207e-02    12  1  7  7
  2.044737725154e-03    12  1  8  2
  9.230833729408e-02    12  1  8  8
 -2.250068121902e-02    12  1  9  1
 -2.036226360686e-02    12  1  9  3
  2.328380998279e-02    12  1  9  9
  3.548390078778e-02    12  1  10  4
  3.239491528594e-02    12  1  10  10
  3.548390078778e-02    12  1  11  5
  3.239491528594e-02    12  1  11  11
  2.227487760771e-02    12  1  12  1
  3.820382433953e-02    12  2  2  1
 -8.520280426619e-02    12  2  3  2
  7.130391483807e-02    12  2  6  5
  7.130391483807e-02    12  2  7  4
  4.217914469977e-02    12  2  8  1
  5.823286513807e-02    12  2  8  3
  1.115902963205e-02    12  2  9  2
 -2.151407479665e-02    12  2  9  8
  4.846190407986e-02    12  2  10  7
  4.846190407986e-02    12  2  11  6
  6.452758324956e-02    12  2  12  2
 -5.759007353321e-02    12  3  1  1
 -9.676540158630e-02    12  3  2  2
  8.349234420204e-03    12  3  3  1
 -9.726754760699e-02    12  3  3  3
 -6.318157736255e-02    12  3  4  4
 -6.318157736255e-02    12  3  5  5
 -9.247041361469e-02    12  3  6  6
 -9.247041361469e-02    12  3  7  7
  2.351192936435e-02    12  3  8  2
 -9.432474581649e-02    12  3  8  8
  4.224490296516e-03    12  3  9  1
  1.907937701246e-02    12  3  9  3
 -2.597189722810e-02    12  3  9  9
 -3.382043704588e-02    12  3  10  4
 -3.980271274939e-02    12  3  10  10
 -3.382043704588e-02    12  3  11  5
 -3.980271274939e-02    12  3  11  11
 -2.076336138395e-02    12  3  12  1
  5.767057005068e-02    12  3  12  3
 -3.377122830018e-03    12  4  4  1
 -3.302780029385e-04    12  4  4  3
  5.727526860709e-03    12  4  7  2
  3.870842129591e-04    12  4  8  7
 -1.039475539499e-02    12  4  9  4
  1.144895332821e-02    12  4  10  1
 -1.028831439686e-02    12  4  10  3
  1.014669271627e-02    12  4  10  9
  2.049840522042e-02    12  4  12  4
 -3.377122830018e-03    12  5  5  1
 -3.302780029385e-04    12  5  5  3
  5.727526860709e-03    12  5  6  2
  3.870842129591e-04    12  5  8  6
 -1.039475539499e-02    12  5  9  5
  1.144895332821e-02    12  5  11  1
 -1.028831439686e-02    12  5  11  3
  1.014669271627e-02    12  5  11  9
  2.049840522042e-02    12  5  12  5
  1.804846468457e-02    12  6  5  2
  1.782186284255e-02    12  6  6  1
 -1.613550105607e-02    12  6  6  3
  9.245653671082e-03    12  6  8  5
  3.008111684198e-03    12  6  9  6
  1.327695949507e-02    12  6  11  2
  8.051877021089e-03    12  6  11  8
  1.999807623032e-02    12  6  12  6
  1.804846468457e-02    12  7  4  2
  1.782186284255e-02    12  7  7  1
 -1.613550105607e-02    12  7  7  3
  9.245653671082e-03    12  7  8  4
  3.008111684198e-03    12  7  9  7
  1.327695949507e-02    12  7  10  2
  8.051877021089e-03    12  7  10  8
  1.999807623032e-02    12  7  12  7
 -1.036290336581e-02    12  8  2  1
  4.362626573169e-02    12  8  3  2
 -1.646198279885e-02    12  8  6  5
 -1.646198279885e-02    12  8  7  4
  5.913109449408e-03    12  8  8  1
 -2.196157485628e-02    12  8  8  3
 -2.868156199186e-03    12  8  9  2
 -2.572290408345e-05    12  8  9  8
 -4.519536738134e-03    12  8  10  7
 -4.519536738134e-03    12  8  11  6
 -2.312799557720e-02    12  8  12  2
  2.008403248982e-02    12  8  12  8
 -5.863806626553e-02    12  9  1  1
  2.919544971044e-03    12  9  2  2
 -1.903001683477e-02    12  9  3  1
  1.453462636251e-03    12  9  3  3
 -4.036094756443e-02    12  9  4  4
 -4.036094756443e-02    12  9  5  5
 -2.227337382074e-02    12  9  6  6
 -2.227337382074e-02    12  9  7  7
 -2.138185048086e-02    12  9  8  2
 -3.586673803352e-02    12  9  8  8
 -2.963245630377e-03    12  9  9  1
  2.134792421038e-02    12  9  9  3
 -1.559296469661e-02    12  9  9  9
 -1.011957011482e-03    12  9  10  4
 -3.083803031496e-02    12  9  10  10
 -1.011957011482e-03    12  9  11  5
 -3.083803031496e-02    12  9  11  11
  3.182907997478e-03    12  9  12  1
 -9.144063820754e-03    12  9  12  3
  3.367653382366e-02    12  9  12  9
  5.192959050576e-02    12  10  4  1
 -2.190475246093e-02    12  10  4  3
  4.847842330845e-02    12  10  7  2
  2.672569351034e-02    12  10  8  7
  2.164799144784e-02    12  10  9  4
  7.744460952314e-03    12  10  10  1
  1.403679711130e-02    12  10  10  3
 -1.844737281650e-02    12  10  10  9
 -1.181629292329e-02    12  10  12  4
  5.006910247430e-02    12  10  12  10
  5.192959050576e-02    12  11  5  1
 -2.190475246093e-02    12  11  5  3
  4.847842330845e-02    12  11  6  2
  2.672569351034e-02    12  11  8  6
  2.164799144784e-02    12  11  9  5
  7.744460952314e-03    12  11  11  1
  1.403679711130e-02    12  11  11  3
 -1.844737281650e-02    12  11  11  9
 -1.181629292329e-02    12  11  12  5
  5.006910247430e-02    12  11  12  11
  4.754711388447e-01    12  12  1  1
  4.564448938053e-01    12  12  2  2
  1.553310427184e-02    12  12  3  1
  4.624970941200e-01    12  12  3  3
  4.502289041808e-01    12  12  4  4
  4.502289041808e-01    12  12  5  5
  4.788559898031e-01    12  12  6  6
  4.788559898031e-01    12  12  7  7
 -8.872315916364e-03    12  12  8  2
  5.036771112527e-01    12  12  8  8
 -1.554753133934e-02    12  12  9  1
 -4.462492140685e-02    12  12  9  3
  3.699454328216e-01    12  12  9  9
  6.332977831982e-02    12  12  10  4
  3.896140807816e-01    12  12  10  10
  6.332977831982e-02    12  12  11  5
  3.896140807816e-01    12  12  11  11
  3.279914384188e-02    12  12  12  1
 -6.657351555218e-02    12  12  12  3
 -1.052051236411e-02    12  12  12  9
  4.132372932524e-01    12  12  12  12
 -5.411323500048e-03    13  1  5  2
 -1.099271367047e-02    13  1  6  1
  3.035652655981e-04    13  1  6  3
 -1.089089461070e-02    13  1  8  5
  6.675901088192e-04    13  1  9  6
 -7.167621000134e-03    13  1  11  2
 -9.445667619265e-03    13  1  11  8
 -8.092879558661e-03    13  1  12  6
  6.433697751740e-03    13  1  13  1
  1.523479582039e-03    13  2  5  1
 -4.566966818254e-03    13  2  5  3
  1.905966635709e-03    13  2  6  2
 -1.987973331210e-03    13  2  8  6
  3.386305370493e-03    13  2  9  5
 -8.553217516534e-03    13  2  11  1
  1.009950854430e-02    13  2  11  3
 -2.426178544177e-03    13  2  11  9
 -1.378285494186e-02    13  2  12  5
  1.169477904912e-02    13  2  12  11
  1.472173990217e-02    13  2  13  2
 -4.925283370907e-03    13  3  5  2
 -4.273612393439e-03    13  3  6  1
  2.379511461751e-03    13  3  6  3
 -4.252857511397e-03    13  3  8  5
  2.409376648382e-03    13  3  9  6
  8.123227589470e-03    13  3  11  2
 -2.715089214565e-03    13  3  11  8
  7.333797433171e-03    13  3  12  6
 -3.115269520486e-03    13  3  13  1
  1.111697114045e-02    13  3  13  3
 -2.809014934825e-03    13  4  6  4
 -2.809014934825e-03    13  4  7  5
 -4.817681543992e-03    13  4  10  6
 -4.817681543992e-03    13  4  11  7
  4.028135871222e-03    13  4  13  4
 -1.264297744059e-02    13  5  2  1
  1.207772632251e-02    13  5  3  2
 -3.257049615475e-02    13  5  6  5
 -2.695246628510e-02    13  5  7  4
 -3.288458367315e-02    13  5  8  1
 -2.087849671420e-02    13  5  8  3
 -8.164318666692e-03    13  5  9  2
  1.763861955967e-02    13  5  9  8
 -2.724445904274e-02    13  5  10  7
 -3.687982213073e-02    13  5  11  6
 -2.617308314714e-02    13  5  12  2
 -1.002529684572e-04    13  5  12  8
  2.623947954847e-02    13  5  13  5
 -1.157358709084e-01    13  6  1  1
 -7.022122435751e-02    13  6  2  2
 -2.330220066390e-02    13  6  3  1
 -7.691715606905e-02    13  6  3  3
 -8.338298534381e-02    13  6  4  4
 -8.987569049754e-02    13  6  5  5
 -1.124384854905e-01    13  6  6  6
 -1.004833066927e-01    13  6  7  7
 -7.171947529655e-03    13  6  8  2
 -1.344008627296e-01    13  6  8  8
  2.019672652349e-02    13  6  9  1
  3.121571720847e-02    13  6  9  3
 -3.701047395169e-02    13  6  9  9
 -4.523558036418e-02    13  6  10  4
 -5.557740300147e-02    13  6  10  10
 -5.638882637643e-02    13  6  11  5
 -5.618491120269e-02    13  6  11  11
 -2.653683730704e-02    13  6  12  1
  3.209691629353e-02    13  6  12  3
  2.854904209663e-03    13  6  12  9
 -5.303614042596e-02    13  6  12  12
  4.720322044066e-02    13  6  13  6
 -3.246352576867e-03    13  7  5  4
 -5.977589398862e-03    13  7  7  6
 -5.576623006126e-03    13  7  10  5
 -5.576623006126e-03    13  7  11  4
 -3.037541006132e-04    13  7  11  10
  4.881294634729e-03    13  7  13  7
 -2.024412550254e-02    13  8  5  1
 -2.057090266392e-03    13  8  5  3
 -1.043617356599e-02    13  8  6  2
 -1.867019510545e-02    13  8  8  6
  1.314081128529e-03    13  8  9  5
 -1.320166582614e-02    13  8  11  1
 -4.424144402001e-03    13  8  11  3
  3.329561620719e-03    13  8  11  9
 -3.396115816729e-03    13  8  12  5
 -5.714622830091e-03    13  8  12  11
  1.797892924364e-03    13  8  13  2
  8.692542775063e-03    13  8  13  8
 -4.391383836457e-03    13  9  5  2
  1.006045712255e-04    13  9  6  1
  7.196737856636e-03    13  9  6  3
  3.899505922154e-03    13  9  8  5
  1.740510657774e-03    13  9  9  6
  2.528056816022e-03    13  9  11  2
  1.549854751672e-03    13  9  11  8
 -5.429312590943e-04    13  9  12  6
 -1.840584326210e-03    13  9  13  1
  4.659959236878e-03    13  9  13  3
  9.773146763676e-03    13  9  13  9
 -8.198875359452e-03    13  10  6  4
 -8.198875359452e-03    13  10  7  5
 -1.561205651593e-03    13  10  10  6
 -1.561205651593e-03    13  10  11  7
 -1.721659655506e-03    13  10  13  4
  8.940143447697e-03    13  10  13  10
 -5.004738227048e-02    13  11  2  1
  9.481996836532e-02    13  11  3  2
 -9.943337333538e-02    13  11  6  5
 -8.303562261647e-02    13  11  7  4
 -5.821051224829e-02    13  11  8  1
 -5.223317927277e-02    13  11  8  3
  5.187475948447e-03    13  11  9  2
  1.099740561601e-02    13  11  9  8
 -3.393912732271e-02    13  11  10  7
 -3.706153862590e-02    13  11  11  6
 -2.800767744649e-02    13  11  12  2
  1.106689812497e-02    13  11  12  8
  1.366991843048e-03    13  11  13  5
  7.984798645994e-02    13  11  13  11
 -2.627094197017e-02    13  12  5  2
 -2.080497415001e-02    13  12  6  1
  2.248706930696e-02    13  12  6  3
 -1.119568670395e-02    13  12  8  5
 -2.989304874765e-03    13  12  9  6
  2.748919753190e-03    13  12  11  2
 -5.343397132104e-03    13  12  11  8
 -4.909740576385e-03    13  12  12  6
 -1.137702439111e-03    13  12  13  1
  1.133780368547e-02    13  12  13  3
  8.023966911183e-03    13  12  13  9
  2.868574690200e-02    13  12  13  12
  3.953927449698e-01    13  13  1  1
  3.709869874551e-01    13  13  2  2
  1.261651122688e-02    13  13  3  1
  3.732293913706e-01    13  13  3  3
  3.674975481981e-01    13  13  4  4
  3.881726184083e-01    13  13  5  5
  4.037524926378e-01    13  13  6  6
  3.834428494866e-01    13  13  7  7
  4.533536928733e-03    13  13  8  2
  4.072879232846e-01    13  13  8  8
 -1.195392617908e-02    13  13  9  1
 -2.514640077988e-02    13  13  9  3
  3.264994166976e-01    13  13  9  9
  3.967903136555e-02    13  13  10  4
  3.304084568806e-01    13  13  10  10
  3.382994282305e-02    13  13  11  5
  3.568152957212e-01    13  13  11  11
  1.801452428988e-02    13  13  12  1
 -2.552131783224e-02    13  13  12  3
 -7.702663503052e-03    13  13  12  9
  3.477656395955e-01    13  13  12  12
 -2.576457787414e-02    13  13  13  6
  3.383046129497e-01    13  13  13  13
 -5.411323500048e-03    14  1  4  2
 -1.099271367047e-02    14  1  7  1
  3.035652655981e-04    14  1  7  3
 -1.089089461070e-02    14  1  8  4
  6.675901088192e-04    14  1  9  7
 -7.167621000134e-03    14  1  10  2
 -9.445667619265e-03    14  1  10  8
 -8.092879558661e-03    14  1  12  7
  6.433697751740e-03    14  1  14  1
  1.523479582039e-03    14  2  4  1
 -4.566966818254e-03    14  2  4  3
  1.905966635709e-03    14  2  7  2
 -1.987973331210e-03    14  2  8  7
  3.386305370493e-03    14  2  9  4
 -8.553217516534e-03    14  2  10  1
  1.009950854430e-02    14  2  10  3
 -2.426178544177e-03    14  2  10  9
 -1.378285494186e-02    14  2  12  4
  1.169477904912e-02    14  2  12  10
  1.472173990217e-02    14  2  14  2
 -4.925283370907e-03    14  3  4  2
 -4.273612393439e-03    14  3  7  1
  2.379511461751e-03    14  3  7  3
 -4.252857511397e-03    14  3  8  4
  2.409376648382e-03    14  3  9  7
  8.123227589470e-03    14  3  10  2
 -2.715089214565e-03    14  3  10  8
  7.333797433171e-03    14  3  12  7
 -3.115269520486e-03    14  3  14  1
  1.111697114045e-02    14  3  14  3
 -1.264297744059e-02    14  4  2  1
  1.207772632251e-02    14  4  3  2
 -2.695246628510e-02    14  4  6  5
 -3.257049615475e-02    14  4  7  4
 -3.288458367315e-02    14  4  8  1
 -2.087849671420e-02    14  4  8  3
 -8.164318666692e-03    14  4  9  2
  1.763861955967e-02    14  4  9  8
 -3.687982213073e-02    14  4  10  7
 -2.724445904274e-02    14  4  11  6
 -2.617308314714e-02    14  4  12  2
 -1.002529684573e-04    14  4  12  8
  1.818320780602e-02    14  4  13  5
  4.810311154059e-03    14  4  13  11
  2.623947954847e-02    14  4  14  4
 -2.809014934825e-03    14  5  6  4
 -2.809014934825e-03    14  5  7  5
 -4.817681543992e-03    14  5  10  6
 -4.817681543992e-03    14  5  11  7
  4.028135871222e-03    14  5  13  4
 -1.721659655506e-03    14  5  13  10
  4.028135871222e-03    14  5  14  5
 -3.246352576867e-03    14  6  5  4
 -5.977589398862e-03    14  6  7  6
 -5.576623006126e-03    14  6  10  5
 -5.576623006126e-03    14  6  11  4
 -3.037541006132e-04    14  6  11  10
  4.881294634729e-03    14  6  13  7
  4.881294634729e-03    14  6  14  6
 -1.157358709084e-01    14  7  1  1
 -7.022122435751e-02    14  7  2  2
 -2.330220066390e-02    14  7  3  1
 -7.691715606905e-02    14  7  3  3
 -8.987569049754e-02    14  7  4  4
 -8.338298534381e-02    14  7  5  5
 -1.004833066927e-01    14  7  6  6
 -1.124384854905e-01    14  7  7  7
 -7.171947529655e-03    14  7  8  2
 -1.344008627296e-01    14  7  8  8
  2.019672652349e-02    14  7  9  1
  3.121571720847e-02    14  7  9  3
 -3.701047395169e-02    14  7  9  9
 -5.638882637643e-02    14  7  10  4
 -5.618491120269e-02    14  7  10  10
 -4.523558036418e-02    14  7  11  5
 -5.557740300147e-02    14  7  11  11
 -2.653683730704e-02    14  7  12  1
  3.209691629353e-02    14  7  12  3
  2.854904209662e-03    14  7  12  9
 -5.303614042596e-02    14  7  12  12
  3.744063117121e-02    14  7  13  6
 -3.038274233682e-02    14  7  13  13
  4.720322044066e-02    14  7  14  7
 -2.024412550254e-02    14  8  4  1
 -2.057090266392e-03    14  8  4  3
 -1.043617356599e-02    14  8  7  2
 -1.867019510545e-02    14  8  8  7
  1.314081128529e-03    14  8  9  4
 -1.320166582614e-02    14  8  10  1
 -4.424144402001e-03    14  8  10  3
  3.329561620719e-03    14  8  10  9
 -3.396115816729e-03    14  8  12  4
 -5.714622830091e-03    14  8  12  10
  1.797892924364e-03    14  8  14  2
  8.692542775063e-03    14  8  14  8
 -4.391383836457e-03    14  9  4  2
  1.006045712255e-04    14  9  7  1
  7.196737856636e-03    14  9  7  3
  3.899505922154e-03    14  9  8  4
  1.740510657774e-03    14  9  9  7
  2.528056816022e-03    14  9  10  2
  1.549854751672e-03    14  9  10  8
 -5.429312590943e-04    14  9  12  7
 -1.840584326210e-03    14  9  14  1
  4.659959236878e-03    14  9  14  3
  9.773146763676e-03    14  9  14  9
 -5.004738227048e-02    14  10  2  1
  9.481996836532e-02    14  10  3  2
 -8.303562261647e-02    14  10  6  5
 -9.943337333538e-02    14  10  7  4
 -5.821051224829e-02    14  10  8  1
 -5.223317927277e-02    14  10  8  3
  5.187475948447e-03    14  10  9  2
  1.099740561601e-02    14  10  9  8
 -3.706153862590e-02    14  10  10  7
 -3.393912732271e-02    14  10  11  6
 -2.800767744649e-02    14  10  12  2
  1.106689812497e-02    14  10  12  8
  4.810311154059e-03    14  10  13  5
  6.196769956455e-02    14  10  13  11
  1.366991843048e-03    14  10  14  4
  7.984798645994e-02    14  10  14  10
 -8.198875359452e-03    14  11  6  4
 -8.198875359452e-03    14  11  7  5
 -1.561205651593e-03    14  11  10  6
 -1.561205651593e-03    14  11  11  7
 -1.721659655506e-03    14  11  13  4
  8.940143447697e-03    14  11  13  10
 -1.721659655506e-03    14  11  14  5
  8.940143447697e-03    14  11  14  11
 -2.627094197017e-02    14  12  4  2
 -2.080497415001e-02    14  12  7  1
  2.248706930696e-02    14  12  7  3
 -1.119568670395e-02    14  12  8  4
 -2.989304874765e-03    14  12  9  7
  2.748919753190e-03    14  12  10  2
 -5.343397132104e-03    14  12  10  8
 -4.909740576385e-03    14  12  12  7
 -1.137702439111e-03    14  12  14  1
  1.133780368547e-02    14  12  14  3
  8.023966911183e-03    14  12  14  9
  2.868574690200e-02    14  12  14  12
  1.033753510509e-02    14  13  5  4
  1.015482157564e-02    14  13  7  6
 -2.924544271251e-03    14  13  10  5
 -2.924544271251e-03    14  13  11  4
  1.320341942034e-02    14  13  11  10
  2.309082231338e-03    14  13  13  7
  2.309082231338e-03    14  13  14  6
  1.538871668108e-02    14  13  14  13
  3.953927449698e-01    14  14  1  1
  3.709869874551e-01    14  14  2  2