 &FCI NORB=30 ,NELEC=30 ,MS2=0,
  ORBSYM=1,1,1,1,1,1,1,1,1,1,1,1,1,1,1,1,1,1,1,1,1,1,1,1,1,1,1,1,1,1,
  ISYM=1,
 &END
  4.328900963214e-01    1  1  1  1
 -1.122426888282e-02    2  1  1  1
  3.037330373985e-03    2  1  2  1
  2.128653373278e-01    2  2  1  1
  1.820001732174e-02    2  2  2  1
  5.644253985911e-01    2  2  2  2
  2.109168491455e-02    3  1  1  1
 -1.335944995766e-03    3  1  2  1
  1.640023834315e-02    3  1  2  2
  3.235356369862e-02    3  1  3  1
 -3.500738730841e-04    3  2  1  1
  1.279697315004e-04    3  2  2  1
 -1.562236052976e-03    3  2  2  2
  1.547197740581e-03    3  2  3  1
  6.559746527354e-04    3  2  3  2
  3.724259150848e-01    3  3  1  1
 -7.964918635757e-03    3  3  2  1
  1.603830958435e-01    3  3  2  2
 -5.520564716112e-02    3  3  3  1
 -3.442963979159e-03    3  3  3  2
  5.606683352979e-01    3  3  3  3
  8.197497514226e-03    4  1  1  1
  6.259752754432e-04    4  1  2  1
  9.371985236332e-03    4  1  2  2
 -5.283367716841e-04    4  1  3  1
 -1.702622554766e-04    4  1  3  2
  1.174865754653e-02    4  1  3  3
  5.547915322323e-03    4  1  4  1
  5.971250968799e-03    4  2  1  1
  6.993244424859e-04    4  2  2  1
  4.161843113362e-03    4  2  2  2
  8.223165306477e-05    4  2  3  1
  5.132769582068e-04    4  2  3  2
  4.691047225070e-03    4  2  3  3
  2.219792302393e-03    4  2  4  1
  2.871245490917e-03    4  2  4  2
  8.231130933076e-03    4  3  1  1
 -1.517868887635e-04    4  3  2  1
  6.789268511930e-03    4  3  2  2
  3.588624960176e-03    4  3  3  1
  2.981498133880e-04    4  3  3  2
  1.045372611907e-03    4  3  3  3
  1.832278144794e-03    4  3  4  1
  1.025185033197e-03    4  3  4  2
  1.804729560123e-03    4  3  4  3
  1.995803328278e-01    4  4  1  1
  1.044116143247e-02    4  4  2  1
  2.536763083215e-01    4  4  2  2
  1.530050762442e-02    4  4  3  1
  4.438876847670e-03    4  4  3  2
  1.411837190981e-01    4  4  3  3
 -2.049928169466e-02    4  4  4  1
  1.967256117231e-03    4  4  4  2
 -3.571425926975e-03    4  4  4  3
  5.720357273883e-01    4  4  4  4
  1.148251774017e-02    5  1  1  1
 -8.457358698782e-04    5  1  2  1
  1.342211368491e-03    5  1  2  2
  1.509488607658e-03    5  1  3  1
 -2.116690783222e-04    5  1  3  2
  1.253369464529e-02    5  1  3  3
  4.506269204691e-04    5  1  4  1
 -1.059894783745e-04    5  1  4  2
 -3.812051426354e-06    5  1  4  3
 -3.492412745887e-03    5  1  4  4
  5.222579541391e-03    5  1  5  1
  6.146417674161e-03    5  2  1  1
 -5.438050004660e-04    5  2  2  1
  2.238324312776e-03    5  2  2  2
  3.754898230169e-04    5  2  3  1
  4.715089672932e-04    5  2  3  2
  4.738566466852e-03    5  2  3  3
  1.032649140983e-04    5  2  4  1
  4.888763055653e-04    5  2  4  2
  2.318470360105e-04    5  2  4  3
  2.991135336130e-03    5  2  4  4
  3.879805423512e-04    5  2  5  1
  2.790193015336e-03    5  2  5  2
  1.110399839977e-02    5  3  1  1
 -4.687824424729e-04    5  3  2  1
  5.121488775915e-03    5  3  2  2
  4.783037052238e-03    5  3  3  1
  4.040063442798e-04    5  3  3  2
  3.137642072664e-03    5  3  3  3
 -5.196647588517e-05    5  3  4  1
  1.038733467683e-04    5  3  4  2
  8.901280058561e-04    5  3  4  3
  4.686677124474e-03    5  3  4  4
  1.918930784931e-03    5  3  5  1
  7.785693093933e-04    5  3  5  2
  3.144587156574e-03    5  3  5  3
  2.450380998583e-03    5  4  1  1
 -1.520556224540e-04    5  4  2  1
 -1.135106553451e-03    5  4  2  2
 -4.240140059275e-04    5  4  3  1
  5.734118561188e-06    5  4  3  2
  3.719383895304e-03    5  4  3  3
  3.890669878819e-04    5  4  4  1
  2.867866351653e-04    5  4  4  2
  3.032519751270e-04    5  4  4  3
 -1.901356129586e-03    5  4  4  4
  1.796362692317e-04    5  4  5  1
  3.023973951478e-04    5  4  5  2
  4.595800851613e-04    5  4  5  3
  5.554296041487e-04    5  4  5  4
  2.817806987341e-01    5  5  1  1
 -6.092199919318e-03    5  5  2  1
  2.539730393719e-01    5  5  2  2
  1.735471208665e-02    5  5  3  1
  4.488111608397e-04    5  5  3  2
  2.566446528284e-01    5  5  3  3
  8.494782371885e-03    5  5  4  1
  3.828137791587e-03    5  5  4  2
  7.035992027518e-03    5  5  4  3
  1.575913445322e-01    5  5  4  4
  1.498145545085e-02    5  5  5  1
  5.349859417000e-03    5  5  5  2
  5.836561110479e-03    5  5  5  3
 -3.535100008161e-03    5  5  5  4
  5.657416596021e-01    5  5  5  5
 -8.819652466440e-03    6  1  1  1
  2.881856277595e-03    6  1  2  1
  1.073631195669e-02    6  1  2  2
  1.521514369269e-03    6  1  3  1
  9.660788342104e-04    6  1  3  2
 -2.466326164943e-02    6  1  3  3
  3.821255354134e-04    6  1  4  1
  2.387901607591e-03    6  1  4  2
  8.070143838404e-04    6  1  4  3
  3.127473210093e-02    6  1  4  4
 -3.362832954222e-03    6  1  5  1
  1.368823221999e-04    6  1  5  2
 -4.431215537867e-04    6  1  5  3
 -1.375986104981e-04    6  1  5  4
 -1.420672562062e-02    6  1  5  5
  1.487803646922e-02    6  1  6  1
  1.886945840932e-02    6  2  1  1
 -2.755783032993e-03    6  2  2  1
 -4.513187897503e-02    6  2  2  2
  1.509496147201e-03    6  2  3  1
  2.118816729074e-03    6  2  3  2
  1.191419292878e-02    6  2  3  3
  8.959289350384e-04    6  2  4  1
  4.082095206827e-03    6  2  4  2
  6.255129453802e-04    6  2  4  3
  1.329462272335e-02    6  2  4  4
  8.403837394980e-04    6  2  5  1
  4.895998835649e-03    6  2  5  2
  7.480729080923e-04    6  2  5  3
 -2.166054905788e-04    6  2  5  4
  1.750999520226e-02    6  2  5  5
  5.916518783622e-03    6  2  6  1
  3.635160145554e-02    6  2  6  2
 -7.134952584233e-03    6  3  1  1
  8.643992917213e-04    6  3  2  1
 -3.183876132336e-03    6  3  2  2
 -7.491105832004e-03    6  3  3  1
 -3.864993996556e-04    6  3  3  2
  9.215278543890e-03    6  3  3  3
  3.275649820944e-04    6  3  4  1
  1.472603473991e-04    6  3  4  2
 -1.025023516339e-03    6  3  4  3
 -5.176486031588e-04    6  3  4  4
 -9.923441056277e-04    6  3  5  1
 -4.617361069166e-04    6  3  5  2
 -1.695657903676e-03    6  3  5  3
  1.437560821380e-04    6  3  5  4
 -1.047047204195e-02    6  3  5  5
  4.885183621594e-04    6  3  6  1
 -1.950928630136e-03    6  3  6  2
  2.746236260658e-03    6  3  6  3
 -4.621315816762e-03    6  4  1  1
  1.809140153145e-03    6  4  2  1
  1.056765265585e-02    6  4  2  2
  2.904319971820e-04    6  4  3  1
  1.012544744890e-04    6  4  3  2
 -6.040481936478e-03    6  4  3  3
  1.856136610269e-03    6  4  4  1
  1.404963049746e-03    6  4  4  2
  3.728528776543e-04    6  4  4  3
  5.379610983768e-04    6  4  4  4
 -8.665017619221e-04    6  4  5  1
 -7.911878289031e-04    6  4  5  2
 -2.192685224169e-04    6  4  5  3
 -3.005880787187e-04    6  4  5  4
 -5.173654391455e-03    6  4  5  5
  3.196954584725e-03    6  4  6  1
 -5.839320089059e-04    6  4  6  2
  8.105968082827e-04    6  4  6  3
  3.952734705956e-03    6  4  6  4
 -3.067692608909e-03    6  5  1  1
 -1.106217653311e-04    6  5  2  1
  1.303416465169e-02    6  5  2  2
  6.865736015968e-04    6  5  3  1
 -1.567719806777e-04    6  5  3  2
 -5.437672344038e-03    6  5  3  3
 -5.703360541908e-05    6  5  4  1
 -7.295582344529e-04    6  5  4  2
  1.289342728395e-04    6  5  4  3
 -7.826398720763e-03    6  5  4  4
  2.477088604162e-04    6  5  5  1
  1.696104989749e-03    6  5  5  2
 -4.624591164461e-04    6  5  5  3
 -4.109137350130e-04    6  5  5  4
  1.120304913359e-02    6  5  5  5
 -2.081767147690e-03    6  5  6  1
  5.353505108247e-04    6  5  6  2
 -6.735802171874e-04    6  5  6  3
 -1.015129112015e-03    6  5  6  4
  5.090046884410e-03    6  5  6  5
  2.868246698382e-01    6  6  1  1
  9.131287936421e-03    6  6  2  1
  4.175670157964e-01    6  6  2  2
  2.083699212538e-02    6  6  3  1
  1.788604877082e-03    6  6  3  2
  2.058345828693e-01    6  6  3  3
  1.071239687239e-02    6  6  4  1
  1.187913946912e-02    6  6  4  2
  9.163912059434e-03    6  6  4  3
  2.953190823990e-01    6  6  4  4
  2.551642542922e-03    6  6  5  1
  1.084212538233e-02    6  6  5  2
  7.802243697834e-03    6  6  5  3
 -1.160160631809e-03    6  6  5  4
  2.871880600269e-01    6  6  5  5
  3.659470671057e-02    6  6  6  1
  4.190331476710e-02    6  6  6  2
 -9.811856605542e-03    6  6  6  3
  7.101861760755e-03    6  6  6  4
  8.425434376806e-03    6  6  6  5
  5.624050288735e-01    6  6  6  6
  1.114440147758e-03    7  1  1  1
  8.544080340909e-05    7  1  2  1
 -5.429804131409e-03    7  1  2  2
 -1.518508978520e-03    7  1  3  1
 -1.048461588968e-04    7  1  3  2
  7.382640185546e-03    7  1  3  3
  3.682315072443e-04    7  1  4  1
 -5.333202527760e-06    7  1  4  2
 -2.193048156047e-04    7  1  4  3
 -6.543435833735e-03    7  1  4  4
 -6.028169280839e-04    7  1  5  1
 -4.631719061074e-05    7  1  5  2
 -7.061998036846e-04    7  1  5  3
  1.578586090772e-04    7  1  5  4
 -6.195591879104e-03    7  1  5  5
 -1.300319312882e-03    7  1  6  1
 -6.378515091821e-04    7  1  6  2
  8.729815558787e-04    7  1  6  3
 -5.533330634998e-05    7  1  6  4
 -1.768727225785e-04    7  1  6  5
 -8.425494433758e-03    7  1  6  6
  3.489932825245e-03    7  1  7  1
  7.334733377932e-03    7  2  1  1
 -4.590146710536e-04    7  2  2  1
 -6.906625939520e-04    7  2  2  2
  2.171778599112e-04    7  2  3  1
  3.590626193708e-04    7  2  3  2
  6.573082478822e-03    7  2  3  3
  2.794335722316e-05    7  2  4  1
  7.364117120307e-04    7  2  4  2
  6.951005905330e-05    7  2  4  3
  6.201914980759e-03    7  2  4  4
  3.476545429747e-04    7  2  5  1
  8.131611571281e-04    7  2  5  2
  2.579566607640e-04    7  2  5  3
 -1.880980342595e-05    7  2  5  4
  6.507414373824e-03    7  2  5  5
  5.274447910807e-04    7  2  6  1
  4.109463478647e-03    7  2  6  2
 -3.010420215676e-04    7  2  6  3
 -2.717556051257e-04    7  2  6  4
 -9.322378833036e-05    7  2  6  5
  7.915925380399e-03    7  2  6  6
 -5.869920173892e-04    7  2  7  1
  1.481220242909e-03    7  2  7  2
  9.767636033701e-03    7  3  1  1
 -1.272516635146e-04    7  3  2  1
  4.708459007412e-03    7  3  2  2
  3.425977293244e-03    7  3  3  1
  3.896940779595e-04    7  3  3  2
  4.141484958674e-03    7  3  3  3
 -3.011009378553e-05    7  3  4  1
  8.351207960227e-06    7  3  4  2
  8.415401032599e-04    7  3  4  3
  4.448513420128e-03    7  3  4  4
 -3.966861785667e-04    7  3  5  1
  1.301203182407e-04    7  3  5  2
  7.405014808546e-04    7  3  5  3
 -2.732624886760e-05    7  3  5  4
  3.992377133565e-03    7  3  5  5
  3.114227121676e-04    7  3  6  1
  1.325982564339e-04    7  3  6  2
 -7.329447207760e-04    7  3  6  3
 -1.712939434875e-05    7  3  6  4
 -1.141595500807e-05    7  3  6  5
  5.700688004601e-03    7  3  6  6
  2.188270366270e-04    7  3  7  1
  7.602861889729e-04    7  3  7  2
  3.001467251155e-03    7  3  7  3
  2.412552315762e-03    7  4  1  1
  4.616611489522e-05    7  4  2  1
  3.292937941211e-03    7  4  2  2
 -1.266577929527e-04    7  4  3  1
 -1.248234603733e-04    7  4  3  2
  2.949642276624e-03    7  4  3  3
  3.907705876402e-04    7  4  4  1
  3.357968986492e-04    7  4  4  2
  2.776206013871e-04    7  4  4  3
 -3.610104507902e-04    7  4  4  4
  2.478351804390e-04    7  4  5  1
 -4.687401928157e-05    7  4  5  2
 -8.632844523172e-06    7  4  5  3
  8.410069717663e-05    7  4  5  4
  3.385193801554e-03    7  4  5  5
 -9.640997867742e-05    7  4  6  1
 -9.172299582532e-05    7  4  6  2
 -4.742036284019e-05    7  4  6  3
  9.502817792810e-05    7  4  6  4
  1.359046575295e-04    7  4  6  5
  3.132376818520e-03    7  4  6  6
 -2.888462875995e-04    7  4  7  1
  4.263122963074e-04    7  4  7  2
  4.974093331152e-04    7  4  7  3
  7.005409827131e-04    7  4  7  4
  6.333844709704e-04    7  5  1  1
  2.867892143065e-04    7  5  2  1
  3.430217852511e-03    7  5  2  2
 -1.663829047035e-04    7  5  3  1
  3.445607343675e-05    7  5  3  2
  9.238202018948e-04    7  5  3  3
 -1.101585465111e-04    7  5  4  1
 -3.879218329802e-05    7  5  4  2
 -2.643391789174e-05    7  5  4  3
  3.839239099507e-03    7  5  4  4
 -1.794592947609e-04    7  5  5  1
  3.536110398332e-04    7  5  5  2
  4.276888503605e-04    7  5  5  3
  1.495344003216e-04    7  5  5  4
 -2.048973827660e-03    7  5  5  5
  5.509607604968e-04    7  5  6  1
 -5.348860279256e-05    7  5  6  2
 -4.701492905408e-06    7  5  6  3
  1.003664519415e-04    7  5  6  4
  1.485449037989e-06    7  5  6  5
  3.616356082622e-03    7  5  6  6
 -7.107622273862e-04    7  5  7  1
  3.664093841600e-04    7  5  7  2
  4.404103016308e-04    7  5  7  3
  2.588722795586e-04    7  5  7  4
  6.645703982142e-04    7  5  7  5
 -7.010787775513e-04    7  6  1  1
  4.916443508566e-04    7  6  2  1
  1.110422468273e-02    7  6  2  2
  4.068931060070e-04    7  6  3  1
 -1.472144675563e-04    7  6  3  2
 -5.429627994352e-04    7  6  3  3
  1.277898477315e-04    7  6  4  1
 -1.309181791288e-04    7  6  4  2
 -3.949316953536e-05    7  6  4  3
  1.265692523426e-03    7  6  4  4
  2.851346546298e-04    7  6  5  1
 -1.517246567014e-05    7  6  5  2
  6.619924925598e-05    7  6  5  3
 -1.540486710983e-04    7  6  5  4
  4.355050259096e-03    7  6  5  5
 -1.029506073703e-03    7  6  6  1
 -9.021215347313e-04    7  6  6  2
 -9.640378860148e-05    7  6  6  3
  3.269529597095e-04    7  6  6  4
  8.523143695636e-04    7  6  6  5
  5.656908664140e-03    7  6  6  6
 -2.348830268761e-04    7  6  7  1
  1.950911927862e-04    7  6  7  2
  3.625287839837e-04    7  6  7  3
  2.928550978274e-04    7  6  7  4
  1.920924309653e-04    7  6  7  5
  9.514491655603e-04    7  6  7  6
  2.677295431470e-01    7  7  1  1
 -5.813154455671e-03    7  7  2  1
  1.405773280779e-01    7  7  2  2
  3.185327208948e-03    7  7  3  1
  2.772327715925e-03    7  7  3  2
  2.553697813510e-01    7  7  3  3
  3.222804795789e-03    7  7  4  1
  4.858312547236e-03    7  7  4  2
  7.406106165114e-03    7  7  4  3
  1.597526727465e-01    7  7  4  4
 -7.155816942077e-03    7  7  5  1
  4.791023995766e-03    7  7  5  2
  3.955424615186e-03    7  7  5  3
  3.834174781208e-03    7  7  5  4
  1.599264628359e-01    7  7  5  5
  3.611902652412e-03    7  7  6  1
  9.970877223069e-03    7  7  6  2
  1.174323191589e-03    7  7  6  3
 -3.378473974161e-03    7  7  6  4
 -4.342952316055e-03    7  7  6  5
  1.798005669681e-01    7  7  6  6
  9.563337725841e-03    7  7  7  1
 -3.842831530372e-04    7  7  7  2
  4.791522910847e-03    7  7  7  3
 -5.072387402384e-03    7  7  7  4
 -3.145799961689e-03    7  7  7  5
 -8.690899639843e-03    7  7  7  6
  5.635438258659e-01    7  7  7  7
  1.238442269594e-02    8  1  1  1
 -1.731828699782e-03    8  1  2  1
 -5.901597304162e-03    8  1  2  2
  4.342907149954e-03    8  1  3  1
  3.418952332270e-04    8  1  3  2
 -4.945146864393e-04    8  1  3  3
 -2.468064984470e-04    8  1  4  1
 -2.144118012536e-04    8  1  4  2
  4.116316504958e-04    8  1  4  3
 -9.482748665860e-03    8  1  4  4
 -2.949753251768e-03    8  1  5  1
 -5.449832118515e-05    8  1  5  2
 -1.910324481889e-03    8  1  5  3
 -2.427195942544e-04    8  1  5  4
  3.608791660522e-03    8  1  5  5
 -7.980464039505e-04    8  1  6  1
  5.902143727420e-04    8  1  6  2
  4.949254142680e-05    8  1  6  3
 -9.108592729121e-04    8  1  6  4
  1.145038061723e-03    8  1  6  5
 -3.754380023468e-03    8  1  6  6
  2.324317452670e-03    8  1  7  1
  8.646982166921e-04    8  1  7  2
  2.217481892523e-03    8  1  7  3
  3.554605945117e-04    8  1  7  4
 -2.365340060358e-04    8  1  7  5
  1.927801645470e-04    8  1  7  6
  8.430215397709e-03    8  1  7  7
  2.048669377207e-02    8  1  8  1
 -2.546910438130e-03    8  2  1  1
  2.046228409241e-04    8  2  2  1
  4.841666050712e-03    8  2  2  2
  1.395214650276e-03    8  2  3  1
 -2.141595383391e-04    8  2  3  2
 -7.554400554307e-03    8  2  3  3
 -5.476942491400e-04    8  2  4  1
 -7.684852869621e-04    8  2  4  2
  1.333664218863e-04    8  2  4  3
  9.310890409359e-04    8  2  4  4
 -2.651960184588e-04    8  2  5  1
  3.560036072867e-04    8  2  5  2
 -5.355387281041e-06    8  2  5  3
  6.273086219287e-05    8  2  5  4
 -6.026552654158e-03    8  2  5  5
  7.110845685440e-04    8  2  6  1
 -1.860888399925e-03    8  2  6  2
 -2.129994723283e-04    8  2  6  3
 -2.126735714553e-04    8  2  6  4
  8.361932103367e-04    8  2  6  5
  2.421066052947e-03    8  2  6  6
  2.429848632371e-04    8  2  7  1
 -5.685895795803e-04    8  2  7  2
  3.797893094575e-04    8  2  7  3
 -1.649676357014e-04    8  2  7  4
  8.825651523560e-05    8  2  7  5
 -2.002226806646e-05    8  2  7  6
  4.172203127145e-03    8  2  7  7
 -9.043168684805e-04    8  2  8  1
  2.037843071611e-03    8  2  8  2
 -1.346226119315e-03    8  3  1  1
  9.204577590221e-04    8  3  2  1
 -1.115010567626e-02    8  3  2  2
 -4.617810777514e-03    8  3  3  1
 -2.472488159235e-04    8  3  3  2
 -7.802940000928e-03    8  3  3  3
 -8.967755551143e-04    8  3  4  1
  1.683506249242e-05    8  3  4  2
  2.669379680225e-04    8  3  4  3
 -8.589672260374e-04    8  3  4  4
 -6.625328235171e-03    8  3  5  1
 -4.360531770713e-04    8  3  5  2
 -4.099118151253e-03    8  3  5  3
 -5.300494626246e-05    8  3  5  4
 -3.688871792360e-02    8  3  5  5
  4.425607073575e-03    8  3  6  1
 -8.814246357268e-04    8  3  6  2
  2.754121670329e-03    8  3  6  3
  2.664123222152e-04    8  3  6  4
  1.614643143297e-04    8  3  6  5
 -1.281301798250e-02    8  3  6  6
  3.646738622140e-03    8  3  7  1
 -1.356596162426e-04    8  3  7  2
  4.005930738097e-03    8  3  7  3
 -3.009609286680e-04    8  3  7  4
 -2.930804719128e-04    8  3  7  5
 -1.072627879207e-03    8  3  7  6
  3.778204936700e-02    8  3  7  7
  3.315689363492e-03    8  3  8  1
  3.298072788270e-03    8  3  8  2
  5.420990664342e-02    8  3  8  3
 -3.031842704936e-03    8  4  1  1
 -5.917741463925e-04    8  4  2  1
 -1.132010289106e-02    8  4  2  2
 -8.449208376341e-04    8  4  3  1
  1.521555727531e-04    8  4  3  2
 -1.712721570872e-03    8  4  3  3
 -2.359362559169e-03    8  4  4  1
 -7.272378400004e-04    8  4  4  2
 -4.265148084567e-04    8  4  4  3
  6.558556086632e-03    8  4  4  4
 -9.684522869299e-04    8  4  5  1
  1.155732308423e-05    8  4  5  2
 -4.534425376124e-04    8  4  5  3
  2.410845813163e-04    8  4  5  4
 -1.132933392694e-02    8  4  5  5
 -2.436973243581e-04    8  4  6  1
 -1.805797586255e-04    8  4  6  2
  4.292678854375e-04    8  4  6  3
 -9.940057877601e-04    8  4  6  4
 -5.378713049284e-04    8  4  6  5
 -1.122700886347e-02    8  4  6  6
  4.774306578560e-04    8  4  7  1
 -5.129652257848e-05    8  4  7  2
  2.461963124050e-04    8  4  7  3
 -1.288753318812e-04    8  4  7  4
 -3.576875948201e-05    8  4  7  5
 -5.061981923862e-04    8  4  7  6
  8.351867637373e-03    8  4  7  7
  7.373340281153e-04    8  4  8  1
  5.191037128922e-04    8  4  8  2
  4.505977275625e-03    8  4  8  3
  2.684470182727e-03    8  4  8  4
 -2.605678982728e-02    8  5  1  1
  2.027127612754e-03    8  5  2  1
  5.097177680664e-03    8  5  2  2
 -4.281743131961e-03    8  5  3  1
 -1.405348757106e-04    8  5  3  2
 -2.645446803304e-02    8  5  3  3
 -5.888722073871e-04    8  5  4  1
 -1.039914670107e-04    8  5  4  2
 -8.488774676514e-04    8  5  4  3
  1.361003124459e-03    8  5  4  4
 -2.513697389335e-03    8  5  5  1
  1.829207297009e-05    8  5  5  2
 -4.506170077815e-03    8  5  5  3
 -8.402344911489e-04    8  5  5  4
 -2.358918994148e-02    8  5  5  5
  4.058733022996e-03    8  5  6  1
 -6.340562000608e-04    8  5  6  2
  1.903197715682e-03    8  5  6  3
  6.679313769744e-04    8  5  6  4
  2.839643803791e-03    8  5  6  5
 -2.734522911117e-04    8  5  6  6
  5.124301402971e-04    8  5  7  1
 -6.853847392621e-04    8  5  7  2
 -7.230803031282e-04    8  5  7  3
 -3.148348644085e-04    8  5  7  4
 -9.655574908928e-04    8  5  7  5
 -4.651239015622e-05    8  5  7  6
 -7.864015292999e-04    8  5  7  7
  6.723640480524e-04    8  5  8  1
  2.010341188972e-03    8  5  8  2
  1.356112191445e-02    8  5  8  3
  1.410179585813e-03    8  5  8  4
  1.894461754762e-02    8  5  8  5
  1.771302496809e-02    8  6  1  1
 -1.392714020219e-03    8  6  2  1
  6.275246957022e-03    8  6  2  2
  4.034171773460e-03    8  6  3  1
  1.386688206287e-04    8  6  3  2
  9.754934657353e-03    8  6  3  3
 -2.594180269096e-04    8  6  4  1
 -4.910086342369e-04    8  6  4  2
  7.274698783364e-04    8  6  4  3
 -5.069970222172e-03    8  6  4  4
  3.037123922774e-03    8  6  5  1
  2.182087712807e-03    8  6  5  2
  2.105916691593e-03    8  6  5  3
  8.288329327047e-05    8  6  5  4
  2.182538546194e-02    8  6  5  5
 -2.470745930790e-03    8  6  6  1
  4.563015327474e-03    8  6  6  2
 -2.604705732520e-03    8  6  6  3
 -2.532870927574e-03    8  6  6  4
  3.100553083062e-03    8  6  6  5
  1.905419865260e-02    8  6  6  6
 -3.325572655522e-04    8  6  7  1
  6.000125026088e-04    8  6  7  2
  6.465000695177e-04    8  6  7  3
  1.029586805308e-04    8  6  7  4
  1.122594457476e-04    8  6  7  5
  1.363098060881e-04    8  6  7  6
  4.865929216349e-03    8  6  7  7
 -1.849361375082e-03    8  6  8  1
  1.129341530705e-03    8  6  8  2
 -2.536053154242e-03    8  6  8  3
 -6.422315946087e-04    8  6  8  4
 -2.511072842973e-03    8  6  8  5
  7.619983656509e-03    8  6  8  6
  2.033128541602e-02    8  7  1  1
 -1.472956216672e-04    8  7  2  1
  1.284030534539e-03    8  7  2  2
  2.340475361374e-03    8  7  3  1
  3.562716710873e-04    8  7  3  2
  1.618121923916e-02    8  7  3  3
  1.516253009057e-04    8  7  4  1
  1.710136292757e-04    8  7  4  2
  9.253545793737e-04    8  7  4  3
  5.817348989174e-03    8  7  4  4
 -6.842132651946e-04    8  7  5  1
  3.511536933013e-04    8  7  5  2
  4.515765573198e-04    8  7  5  3
  2.511440253020e-04    8  7  5  4
 -4.522925932467e-03    8  7  5  5
  7.072456889185e-04    8  7  6  1
  8.776212711380e-04    8  7  6  2
 -1.610628172830e-04    8  7  6  3
 -2.078685754393e-04    8  7  6  4
 -5.447912452877e-04    8  7  6  5
  5.615580234444e-03    8  7  6  6
  8.518351789797e-04    8  7  7  1
  1.314211008821e-03    8  7  7  2
  4.489591499086e-03    8  7  7  3
  6.787231497440e-04    8  7  7  4
  8.967766629000e-04    8  7  7  5
  1.144146631768e-04    8  7  7  6
  1.643075898535e-02    8  7  7  7
  3.067747336543e-03    8  7  8  1
  1.366233974852e-03    8  7  8  2
  1.201023559302e-02    8  7  8  3
  1.208809066920e-03    8  7  8  4
  5.163660344009e-04    8  7  8  5
  1.469008358034e-03    8  7  8  6
  1.053928355616e-02    8  7  8  7
  3.685463614071e-01    8  8  1  1
 -9.487733118476e-03    8  8  2  1
  1.866093787177e-01    8  8  2  2
 -8.420556117382e-03    8  8  3  1
 -1.700710349963e-04    8  8  3  2
  4.339953558594e-01    8  8  3  3
  9.450217160165e-03    8  8  4  1
  4.865895339537e-03    8  8  4  2
  6.402158800649e-03    8  8  4  3
  1.584316542476e-01    8  8  4  4
  1.088363842161e-02    8  8  5  1
  5.740124734419e-03    8  8  5  2
  1.159774900962e-02    8  8  5  3
  2.755289648879e-03    8  8  5  4
  3.113671016315e-01    8  8  5  5
 -1.858412184597e-02    8  8  6  1
  1.488659019467e-02    8  8  6  2
 -1.639148563111e-03    8  8  6  3
 -5.435859870080e-03    8  8  6  4
 -2.630224951747e-03    8  8  6  5
  2.374277043193e-01    8  8  6  6
  3.236838318762e-03    8  8  7  1
  7.166061719156e-03    8  8  7  2
  1.081044223033e-02    8  8  7  3
  2.704010284549e-03    8  8  7  4
  1.035653882178e-03    8  8  7  5
  7.823313456629e-04    8  8  7  6
  2.676340432614e-01    8  8  7  7
  7.536167325705e-03    8  8  8  1
 -7.337689341856e-03    8  8  8  2
 -1.436159681217e-02    8  8  8  3
 -3.571175408817e-03    8  8  8  4
 -3.584987548849e-02    8  8  8  5
  1.317242916613e-02    8  8  8  6
  1.682928849646e-02    8  8  8  7
  4.273015551067e-01    8  8  8  8
  9.417284062258e-02    9  1  1  1
 -7.927306844269e-03    9  1  2  1
 -7.610330700174e-03    9  1  2  2
  1.259918501498e-02    9  1  3  1
 -8.198775840250e-04    9  1  3  2
  6.522261758579e-02    9  1  3  3
  1.008130945106e-03    9  1  4  1
 -1.870268500229e-04    9  1  4  2
  1.907960514157e-03    9  1  4  3
 -2.561816834751e-02    9  1  4  4
  1.160607251688e-02    9  1  5  1
  1.924420769368e-03    9  1  5  2
  7.242481136406e-03    9  1  5  3
  1.179761588888e-03    9  1  5  4
  5.027617021631e-02    9  1  5  5
 -1.000426710445e-02    9  1  6  1
  6.486419478955e-03    9  1  6  2
 -5.440289929001e-03    9  1  6  3
 -4.968921008066e-03    9  1  6  4
  7.322970908958e-04    9  1  6  5
  2.150892871406e-02    9  1  6  6
 -2.019072999634e-03    9  1  7  1
  1.798096666643e-03    9  1  7  2
  1.174205993704e-03    9  1  7  3
  8.563075992377e-04    9  1  7  4
  8.888933857608e-05    9  1  7  5
 -4.623223506989e-04    9  1  7  6
  8.721700889176e-03    9  1  7  7
 -9.670844406084e-04    9  1  8  1
 -5.188122752501e-04    9  1  8  2
 -1.728731159542e-02    9  1  8  3
 -2.597088543505e-03    9  1  8  4
 -1.927315340766e-02    9  1  8  5
  1.326665177082e-02    9  1  8  6
  2.244442589163e-03    9  1  8  7
  6.877107334343e-02    9  1  8  8
  6.973812738306e-02    9  1  9  1
 -1.015162143722e-02    9  2  1  1
 -1.044553694073e-03    9  2  2  1
 -3.407464645776e-03    9  2  2  2
 -1.526615099788e-03    9  2  3  1
 -1.056193465975e-03    9  2  3  2
 -4.474811986223e-03    9  2  3  3
 -7.290733840669e-04    9  2  4  1
 -1.959453010748e-03    9  2  4  2
 -3.175784492724e-04    9  2  4  3
 -1.244480821704e-02    9  2  4  4
 -4.929790758047e-04    9  2  5  1
 -1.204891152399e-03    9  2  5  2
 -7.727412061070e-04    9  2  5  3
 -2.104395329425e-04    9  2  5  4
 -1.098803025832e-03    9  2  5  5
 -2.153360321129e-03    9  2  6  1
 -5.097269239014e-03    9  2  6  2
  1.356384206311e-04    9  2  6  3
 -8.646803163493e-04    9  2  6  4
  7.430415214907e-04    9  2  6  5
 -1.053092035123e-02    9  2  6  6
  1.083631219988e-04    9  2  7  1
 -1.002031251383e-03    9  2  7  2
 -2.151698628227e-04    9  2  7  3
  4.961241939982e-05    9  2  7  4
 -2.055943572312e-04    9  2  7  5
  2.049325715717e-04    9  2  7  6
 -4.186217858639e-03    9  2  7  7
  6.562414117844e-04    9  2  8  1
  1.295151469559e-03    9  2  8  2
 -1.015230428189e-04    9  2  8  3
  2.573059412190e-04    9  2  8  4
  4.129579502805e-04    9  2  8  5
 -3.051403645287e-04    9  2  8  6
 -8.405807537822e-04    9  2  8  7
 -4.705092541862e-03    9  2  8  8
 -1.610462356361e-03    9  2  9  1
  4.743421774453e-03    9  2  9  2
  2.587534736967e-02    9  3  1  1
 -2.517368600502e-03    9  3  2  1
 -8.352539051711e-03    9  3  2  2
  4.874596049122e-03    9  3  3  1
 -5.628037664597e-05    9  3  3  2
  2.092019020601e-02    9  3  3  3
  5.942399294163e-04    9  3  4  1
  9.522798346960e-05    9  3  4  2
  8.572385464329e-04    9  3  4  3
 -9.279216750267e-03    9  3  4  4
  3.799815770194e-03    9  3  5  1
  1.889792390287e-04    9  3  5  2
  3.396170814660e-03    9  3  5  3
  4.852790122798e-04    9  3  5  4
  1.942017199540e-02    9  3  5  5
 -4.167503494314e-03    9  3  6  1
  1.952095342123e-03    9  3  6  2
 -2.208650341169e-03    9  3  6  3
 -1.253864894674e-03    9  3  6  4
 -9.238752180135e-04    9  3  6  5
 -9.486482281324e-04    9  3  6  6
 -7.134926024469e-04    9  3  7  1
  6.216371839800e-04    9  3  7  2
  2.622666845915e-04    9  3  7  3
  2.425968346970e-04    9  3  7  4
  4.802797078233e-05    9  3  7  5
 -1.629551601172e-04    9  3  7  6
  2.673576996521e-03    9  3  7  7
 -3.375643004227e-03    9  3  8  1
 -7.987612008273e-04    9  3  8  2
 -8.507860207829e-03    9  3  8  3
 -9.147391072962e-04    9  3  8  4
 -8.693532808272e-03    9  3  8  5
  3.624919702559e-03    9  3  8  6
  1.252457516972e-04    9  3  8  7
  2.607687391583e-02    9  3  8  8
  2.003900079941e-02    9  3  9  1
 -3.308575291864e-04    9  3  9  2
  8.710902530896e-03    9  3  9  3
 -8.898318370939e-03    9  4  1  1
 -1.257773175227e-03    9  4  2  1
 -2.260179656542e-02    9  4  2  2
 -1.198787059215e-03    9  4  3  1
  1.221347340213e-04    9  4  3  2
 -3.075814658941e-03    9  4  3  3
 -6.953309535226e-03    9  4  4  1
 -3.070859789757e-03    9  4  4  2
 -2.752304190730e-03    9  4  4  3
  2.393128805435e-02    9  4  4  4
 -1.303977953916e-04    9  4  5  1
 -5.069290877404e-04    9  4  5  2
  1.245346564435e-05    9  4  5  3
 -3.500731003241e-04    9  4  5  4
 -1.215094079182e-02    9  4  5  5
 -3.333631767278e-03    9  4  6  1
 -1.449232785222e-03    9  4  6  2
  1.956637538248e-04    9  4  6  3
 -2.632952890816e-03    9  4  6  4
 -1.141245042478e-03    9  4  6  5
 -2.701319308827e-02    9  4  6  6
  2.278485809137e-04    9  4  7  1
  9.521920691529e-05    9  4  7  2
 -1.125581708603e-04    9  4  7  3
 -5.820731810832e-04    9  4  7  4
  7.235606686850e-05    9  4  7  5
 -2.773571960419e-04    9  4  7  6
 -2.240511369352e-03    9  4  7  7
 -3.721519596253e-04    9  4  8  1
  1.188221768309e-04    9  4  8  2
  2.455148242737e-04    9  4  8  3
  3.719413533415e-03    9  4  8  4
 -1.008330990401e-03    9  4  8  5
 -5.937809405606e-04    9  4  8  6
  6.163338038630e-05    9  4  8  7
 -5.147756946563e-03    9  4  8  8
 -1.185273689831e-03    9  4  9  1
  1.009264620036e-03    9  4  9  2
  5.767131533477e-04    9  4  9  3
  1.086953730143e-02    9  4  9  4
  2.936564807834e-02    9  5  1  1
 -1.392602857665e-03    9  5  2  1
 -7.560313801410e-03    9  5  2  2
  1.746036204914e-03    9  5  3  1
 -2.182395134971e-04    9  5  3  2
  2.718294011800e-02    9  5  3  3
  1.812291366378e-04    9  5  4  1
  4.696712137171e-04    9  5  4  2
  4.815980203619e-04    9  5  4  3
  6.395997611265e-03    9  5  4  4
  2.049670336209e-03    9  5  5  1
  1.308035535340e-03    9  5  5  2
  4.957661346898e-03    9  5  5  3
  1.821361435444e-03    9  5  5  4
 -4.582283156593e-02    9  5  5  5
  1.516660430691e-03    9  5  6  1
  2.719542524931e-03    9  5  6  2
 -5.467529740673e-04    9  5  6  3
 -3.795179319559e-04    9  5  6  4
 -2.567249658635e-03    9  5  6  5
  1.056779511934e-02    9  5  6  6
 -1.013279959121e-04    9  5  7  1
  2.731734523952e-04    9  5  7  2
  5.835540296330e-04    9  5  7  3
 -1.025287544689e-04    9  5  7  4
  1.622176706240e-03    9  5  7  5
 -9.384536066646e-04    9  5  7  6
  1.575652325538e-02    9  5  7  7
 -5.064728798113e-03    9  5  8  1
  3.352417452074e-04    9  5  8  2
 -5.118335950694e-03    9  5  8  3
  4.640201758477e-05    9  5  8  4
 -1.439050154615e-02    9  5  8  5