[Molden Format]
made by pyscf v[1.7.0]
[Atoms] (AU)
C   1   6     0.00097698840640     0.00000000000000     0.00056502811124
C   2   6     0.00097698840640     0.00000000000000     2.63558590812190
C   3   6     2.28297246190868     0.00000000000000     3.95309729299028
C   4   6     4.56496793541096     0.00000000000000     2.63558590812190
C   5   6     4.56496793541096     0.00000000000000     0.00056502811124
C   6   6     2.28297246190868     0.00000000000000    -1.31694635675714
H   7   1    -1.77526541320016     0.00000000000000    -1.02494965544160
H   8   1    -1.77526541320016     0.00000000000000     3.66110059167474
H   9   1     2.28297246190868     0.00000000000000     6.00412477036984
H   10   1     6.34121222674364     0.00000000000000     3.66110059167474
H   11   1     6.34121222674364     0.00000000000000    -1.02494965544160
H   12   1     2.28297246190868     0.00000000000000    -3.36797383413670
[GTO]
1 0
 s    8 1.00
                  6665  0.00069158396281299
                  1000  0.0053257961529341
                   228   0.027060721042034
                 64.71    0.10165684614077
                 21.06     0.2745748236174
                 7.495    0.44829431892377
                 2.797    0.28490261071525
                0.5215   0.015194859206082
 s    8 1.00
                  6665  -0.00029326965268655
                  1000  -0.0023180354739745
                   228  -0.011499786038565
                 64.71  -0.046826727009787
                 21.06   -0.12846616875047
                 7.495   -0.30126627246289
                 2.797   -0.25563070233011
                0.5215      1.093793361012
 s    1 1.00
                0.1596                   1
 p    3 1.00
                 9.439   0.056979251590039
                 2.002    0.31320721150073
                0.5456    0.76037674173753
 p    1 1.00
                0.1517                   1
 d    1 1.00
                  0.55                   1

2 0
 s    8 1.00
                  6665  0.00069158396281299
                  1000  0.0053257961529341
                   228   0.027060721042034
                 64.71    0.10165684614077
                 21.06     0.2745748236174
                 7.495    0.44829431892377
                 2.797    0.28490261071525
                0.5215   0.015194859206082
 s    8 1.00
                  6665  -0.00029326965268655
                  1000  -0.0023180354739745
                   228  -0.011499786038565
                 64.71  -0.046826727009787
                 21.06   -0.12846616875047
                 7.495   -0.30126627246289
                 2.797   -0.25563070233011
                0.5215      1.093793361012
 s    1 1.00
                0.1596                   1
 p    3 1.00
                 9.439   0.056979251590039
                 2.002    0.31320721150073
                0.5456    0.76037674173753
 p    1 1.00
                0.1517                   1
 d    1 1.00
                  0.55                   1

3 0
 s    8 1.00
                  6665  0.00069158396281299
                  1000  0.0053257961529341
                   228   0.027060721042034
                 64.71    0.10165684614077
                 21.06     0.2745748236174
                 7.495    0.44829431892377
                 2.797    0.28490261071525
                0.5215   0.015194859206082
 s    8 1.00
                  6665  -0.00029326965268655
                  1000  -0.0023180354739745
                   228  -0.011499786038565
                 64.71  -0.046826727009787
                 21.06   -0.12846616875047
                 7.495   -0.30126627246289
                 2.797   -0.25563070233011
                0.5215      1.093793361012
 s    1 1.00
                0.1596                   1
 p    3 1.00
                 9.439   0.056979251590039
                 2.002    0.31320721150073
                0.5456    0.76037674173753
 p    1 1.00
                0.1517                   1
 d    1 1.00
                  0.55                   1

4 0
 s    8 1.00
                  6665  0.00069158396281299
                  1000  0.0053257961529341
                   228   0.027060721042034
                 64.71    0.10165684614077
                 21.06     0.2745748236174
                 7.495    0.44829431892377
                 2.797    0.28490261071525
                0.5215   0.015194859206082
 s    8 1.00
                  6665  -0.00029326965268655
                  1000  -0.0023180354739745
                   228  -0.011499786038565
                 64.71  -0.046826727009787
                 21.06   -0.12846616875047
                 7.495   -0.30126627246289
                 2.797   -0.25563070233011
                0.5215      1.093793361012
 s    1 1.00
                0.1596                   1
 p    3 1.00
                 9.439   0.056979251590039
                 2.002    0.31320721150073
                0.5456    0.76037674173753
 p    1 1.00
                0.1517                   1
 d    1 1.00
                  0.55                   1

5 0
 s    8 1.00
                  6665  0.00069158396281299
                  1000  0.0053257961529341
                   228   0.027060721042034
                 64.71    0.10165684614077
                 21.06     0.2745748236174
                 7.495    0.44829431892377
                 2.797    0.28490261071525
                0.5215   0.015194859206082
 s    8 1.00
                  6665  -0.00029326965268655
                  1000  -0.0023180354739745
                   228  -0.011499786038565
                 64.71  -0.046826727009787
                 21.06   -0.12846616875047
                 7.495   -0.30126627246289
                 2.797   -0.25563070233011
                0.5215      1.093793361012
 s    1 1.00
                0.1596                   1
 p    3 1.00
                 9.439   0.056979251590039
                 2.002    0.31320721150073
                0.5456    0.76037674173753
 p    1 1.00
                0.1517                   1
 d    1 1.00
                  0.55                   1

6 0
 s    8 1.00
                  6665  0.00069158396281299
                  1000  0.0053257961529341
                   228   0.027060721042034
                 64.71    0.10165684614077
                 21.06     0.2745748236174
                 7.495    0.44829431892377
                 2.797    0.28490261071525
                0.5215   0.015194859206082
 s    8 1.00
                  6665  -0.00029326965268655
                  1000  -0.0023180354739745
                   228  -0.011499786038565
                 64.71  -0.046826727009787
                 21.06   -0.12846616875047
                 7.495   -0.30126627246289
                 2.797   -0.25563070233011
                0.5215      1.093793361012
 s    1 1.00
                0.1596                   1
 p    3 1.00
                 9.439   0.056979251590039
                 2.002    0.31320721150073
                0.5456    0.76037674173753
 p    1 1.00
                0.1517                   1
 d    1 1.00
                  0.55                   1

7 0
 s    3 1.00
                 13.01   0.033498726389998
                 1.962    0.23480080117413
                0.4446     0.8136829578829
 s    1 1.00
                 0.122                   1
 p    1 1.00
                 0.727                   1

8 0
 s    3 1.00
                 13.01   0.033498726389998
                 1.962    0.23480080117413
                0.4446     0.8136829578829
 s    1 1.00
                 0.122                   1
 p    1 1.00
                 0.727                   1

9 0
 s    3 1.00
                 13.01   0.033498726389998
                 1.962    0.23480080117413
                0.4446     0.8136829578829
 s    1 1.00
                 0.122                   1
 p    1 1.00
                 0.727                   1

10 0
 s    3 1.00
                 13.01   0.033498726389998
                 1.962    0.23480080117413
                0.4446     0.8136829578829
 s    1 1.00
                 0.122                   1
 p    1 1.00
                 0.727                   1

11 0
 s    3 1.00
                 13.01   0.033498726389998
                 1.962    0.23480080117413
                0.4446     0.8136829578829
 s    1 1.00
                 0.122                   1
 p    1 1.00
                 0.727                   1

12 0
 s    3 1.00
                 13.01   0.033498726389998
                 1.962    0.23480080117413
                0.4446     0.8136829578829
 s    1 1.00
                 0.122                   1
 p    1 1.00
                 0.727                   1

[5d]
[7f]
[9g]

[MO]
 Sym= A
 Ene=               0
 Spin= Alpha
 Occup=    1.00000
   1    -0.015539983845719
   2     0.011611197383856
   3      0.71543683909738
   4     0.012840881837991
   5    1.0189403669101e-15
   6     0.098551976383929
   7       0.4508984473326
   8    -3.5396159952682e-15
   9        0.303107568228
  10      0.01326882861443
  11    -0.024294587036348
  12    -7.3524155580496e-17
  13    -0.013062991455428
  14    1.5556693549932e-17
  15    -0.011588920721918
  16    -0.055758713993442
  17       0.3478088522772
  18    -0.091790081090892
  19    3.9768489524468e-17
  20    -0.039725653884698
  21      0.77897412434721
  22    9.1310067763252e-15
  23      0.47012250363852
  24     0.031157834348992
  25     0.021833077332927
  26    -8.4357012034595e-16
  27    -0.028581685621497
  28    -7.4548033616077e-16
  29     0.036660955036368
  30     -0.14190687544213
  31      -2.0477533675764
  32    -0.067948338173523
  33    -1.496398299086e-14
  34      0.41821270552061
  35     -0.36071572359444
  36    -2.4575550887427e-14
  37       1.3430095193525
  38    -0.016334982852125
  39     0.002309896168755
  40    4.992886425314e-17
  41    -0.031623428592819
  42    6.3578595834855e-17
  43    -0.014985011921211
  44    -0.096033832139216
  45      0.89091634160515
  46      0.11433766456355
  47    1.5236784669345e-16
  48    -0.018059342700606
  49     -0.93937897605995
  50    1.6023967119521e-14
  51      0.77293481518729
  52     0.024895498303986
  53    -0.0070396941834368
  54    2.7730979154081e-16
  55    -0.020649486172455
  56    9.305770455288e-16
  57    -0.020803278287404
  58    -0.026647240145955
  59       1.3509250583865
  60    0.0053327502227217
  61    -1.3027369571348e-14
  62     0.079444234554799
  63     -0.65117447278636
  64    -2.1889138615157e-14
  65     0.048251806834503
  66    0.0074962369651934
  67     0.010113988188818
  68    -2.4805935030825e-17
  69    -0.004334562302452
  70    9.191783049093e-17
  71     0.027012770276241
  72    -0.042585099801235
  73       -1.192629646045
  74    -0.067977161349318
  75    4.4030852961058e-16
  76     -0.13541674563575
  77     -0.38231163532498
  78    9.2639679952889e-15
  79      -0.9692297288198
  80    -0.00073986514613884
  81    -0.0020260149979945
  82    -4.2290395049386e-16
  83    -0.026924714354892
  84    -8.6739357040969e-16
  85     -0.07389657500307
  86      0.35949671203808
  87     0.012800439794682
  88    -9.2888254008128e-17
  89    -0.002135095183254
  90    -0.077183541627289
  91      0.28160421755871
  92     0.018722020662679
  93    1.6517790576391e-16
  94    -0.00013265913430783
  95     0.077725260124735
  96     -0.72868424012757
  97    -0.0029041148890647
  98    -8.4747101772385e-16
  99    -0.022036575946002
 100    -0.014732157779906
 101      0.21494443604479
 102    -0.010211009231505
 103    3.5599744403411e-16
 104    0.0057106557341022
 105    -0.010491918964807
 106      0.32656754043094
 107     -0.00406938863558
 108    -7.1503248989093e-16
 109    -0.0076056984040465
 110     0.038081455895828
 111     -0.46745688947749
 112    -0.0033369020657221
 113    2.3231890204633e-16
 114    0.0059211454074869
 Sym= A
 Ene=               1
 Spin= Alpha
 Occup=    1.00000
   1    -0.015513285264507
   2    -0.018163687617815
   3      0.81134739181806
   4     0.017075561637389
   5    -9.457332428624e-17
   6    -0.003660381281111
   7      0.37148405029796
   8    -2.1630054530759e-16
   9      0.12523899448662
  10    0.0028313515072113
  11    0.0093531536695727
  12    7.7260600093877e-17
  13     0.022687847649472
  14    6.5052183260985e-17
  15     0.015522428917509
  16    0.0034519268878563
  17     -0.53972565113551
  18    -0.021104465076183
  19    -4.9478101385879e-16
  20     0.010987905101703
  21     -0.39944485330166
  22    2.9607854427907e-16
  23      0.23007574972267
  24    -0.011026108384341
  25    -0.021718982486918
  26    1.1801311645459e-16
  27    0.0060863129720428
  28    -1.4557427591326e-16
  29    -0.014957749143947
  30    -0.016745145562303
  31      0.78706019180061
  32     0.013320644355737
  33    -1.8678414206783e-16
  34    -0.013803404533232
  35     0.060282994910878
  36    -6.5042735942394e-16
  37      -0.3657463096364
  38     0.021882345797426
  39    -0.0035077456450447
  40    -2.8063888310638e-17
  41     0.011477568958062
  42    7.9704395746731e-17
  43     0.014330436505558
  44     0.010396788301938
  45     -0.32243413648818
  46    -0.011505927930063
  47    -1.0590451766324e-16
  48     0.044720255849784
  49       0.5454574696049
  50    1.8590650761613e-15
  51     -0.15567978854001
  52    -0.023435018392509
  53     0.018792794734568
  54    3.0205622485543e-16
  55    0.0089772960422712
  56    -1.5754303886272e-16
  57     0.042156737213338
  58     -0.35146726126013
  59      -1.2191935490722
  60     -0.20683597658227
  61    -2.8695413483626e-15
  62      0.12083385506655
  63     -0.81486022553956
  64    -3.6114213391027e-15
  65      0.45053746444573
  66    0.0019654060659681
  67    0.0060221327374566
  68    -8.1896297880099e-17
  69    -0.0046477085967907
  70    -9.0925635799607e-18
  71     0.015271381269717
  72    0.0071950466288549
  73     -0.37443736150334
  74    -0.045132416809914
  75    1.2659435766835e-16
  76     -0.02091140950982
  77      0.40733541595364
  78    1.4658877794188e-15
  79     -0.42377275767739
  80     0.022824933246009
  81    -0.012013403808894
  82    -1.0339794424307e-16
  83    -0.018401575094586
  84    -1.5512923558513e-16
  85     0.059526388228194
  86     0.085982308291144
  87    -0.015239460529292
  88    -3.7507242171313e-17
  89    -0.0039126130338811
  90     0.054133642560442
  91     -0.26544520480684
  92    -0.0073814989141707
  93    1.5222066099067e-17
  94    0.0044135132947495
  95     0.060512480160157
  96     0.077546995150861
  97    -0.0043664765718702
  98    -4.203099210664e-17
  99     0.015273500006824
 100     0.046758435069132
 101     -0.29161693419339
 102    0.0070798069993826
 103    3.0345622444059e-17
 104    -0.0003145698527612
 105     -0.23853649542102
 106       1.3447298579573
 107      0.01281427508946
 108    -1.2622097956629e-16
 109    -0.0075730953270236
 110     0.048739746092965
 111     -0.30665030657781
 112    0.0039599561306036
 113    3.5582948290143e-17
 114    -0.0056348476610952
 Sym= A
 Ene=               2
 Spin= Alpha
 Occup=    1.00000
   1    -0.015363571201676
   2    -0.018254167751434
   3       0.8070548262601
   4    0.0042186170066551
   5    4.7747538111827e-16
   6     0.017981136556844
   7      0.29610740397767
   8    1.3247151332147e-15
   9      0.24445983869096
  10    0.0079201447760437
  11     0.013162581691677
  12    1.2478301906324e-17
  13     0.019814137300156
  14    -1.4655044888531e-16
  15     0.013863059367668
  16     0.011008047858361
  17      -0.3147089732916
  18    -0.029921922395199
  19    -1.5634404106175e-16
  20    -0.029376146881551
  21     -0.11481322204733
  22    -1.677243365096e-15
  23      0.56618831622361
  24    -0.005349409773719
  25    -0.030427115708087
  26    1.3082350370307e-16
  27    -0.0012013506272291
  28    2.7009291672434e-16
  29      0.04333469175791
  30     -0.34662830752413
  31      -1.2948399114902
  32    0.0012317737521998
  33    2.4683157593499e-16
  34      -0.2429397097895
  35     -0.00137349185751
  36    1.0832146455182e-15
  37     -0.90317248800598
  38    -0.0084743553711088
  39    0.00013577597748424
  40    -7.3017302346724e-17
  41    0.00082467976787236
  42    -2.4406511750322e-17
  43     0.014587351916744
  44    0.0091060154665597
  45     -0.33633361419107
  46      0.02984262078726
  47    -2.0698819875583e-16
  48    -0.021624245686621
  49       0.1196651362902
  50    4.3284620984506e-16
  51      0.59641576729663
  52    -0.0059558251691044
  53     0.030682821437761
  54    6.2207015452551e-17
  55    -0.0011800059553272
  56    1.0333217748511e-16
  57    -0.016221737929572
  58    -0.022833541510651
  59      0.86781994643439
  60    -0.001328478884159
  61    -1.8566125935863e-15
  62      0.01561635280175
  63      -0.3118771099377
  64    -2.8323578099565e-15
  65       0.2505819827428
  66    0.0075970097721192
  67    -0.013904784890476
  68    6.1808069590103e-17
  69     0.020515492596997
  70    -9.0097375920333e-18
  71     0.016658491112734
  72    -0.00053622501120685
  73     -0.58163310923235
  74    -0.0049183357987014
  75    -1.5769880476696e-16
  76    -0.032652748224128
  77    -0.022542797015718
  78    1.1038571701199e-15
  79     -0.49433430694568
  80     0.022226845542607
  81    -0.00029703115819229
  82    -3.0437453932064e-17
  83    -0.013603402178218
  84    -1.6031327362282e-16
  85     0.060458090599038
  86     0.081730143198535
  87    -0.010942980696062
  88    2.4985679128684e-17
  89    -0.011721245646491
  90     0.044995036786225
  91     -0.28744233225924
  92    -0.0029012772980009
  93    -3.6134365211656e-17
  94     0.006706002429972
  95     -0.24194574398558
  96       1.3339039389991
  97    0.00018941146827597
  98    -1.7246317511141e-17
  99     0.014458957221581
 100     0.047566445539189
 101     -0.29644741649879
 102    0.0027919222687786
 103    1.5828802525155e-18
 104    0.0071451024352273
 105       0.0645199567548
 106     0.085563997551784
 107     0.011492495934899
 108    -9.823855386864e-17
 109    -0.011908482642162
 110      0.05900234683657
 111     -0.28300481358163
 112    -0.00035813703412496
 113    7.5136733121233e-18
 114    -0.0087242718104197
 Sym= A
 Ene=               3
 Spin= Alpha
 Occup=    1.00000
   1     0.014337567636219
   2     0.013230998095963
   3      -0.3133245962422
   4    -0.026207713607475
   5    -6.2871283234037e-16
   6     0.027665761235783
   7     -0.15508934647698
   8    7.3322702454467e-16
   9     -0.54754535237702
  10    -0.0071322762736054
  11     0.032406598906518
  12    2.0629566805923e-16
  13    0.0008314429575804
  14    -4.0412871132676e-16
  15    -0.014258834668396
  16    -0.018627630107134
  17      0.76989447338599
  18    0.0040809998741351
  19    -4.0816555644744e-16
  20    -0.012853045230558
  21      0.26350985877788
  22    -3.1404895555487e-17
  23      -0.2216530901237
  24    0.0067906069964093
  25    -0.015168449547155
  26    1.6740306853302e-16
  27     0.021015150725391
  28    -3.7345260997626e-16
  29     0.014539736339462
  30    0.0031122000066642
  31     -0.48304237131631
  32    0.0010598115712315
  33    1.7692544184511e-16
  34     0.021855069761501
  35     0.020535343550149
  36    8.0151246494862e-16
  37      0.42642001884337
  38      0.02311311679801
  39    -0.00011425696013019
  40    3.027867194663e-17
  41     -0.01194748327438
  42    -6.9421567949962e-17
  43    -0.014963411584582
  44    -0.016404815674206
  45      0.77075882373387
  46    -0.0033183310572267
  47    -2.1523193653763e-16
  48    -0.021842768399746
  49     -0.26113645422894
  50    -2.6770331828299e-15
  51     -0.27923414553976
  52    0.0076795199659521
  53     0.014006420237323
  54    -2.077001634012e-16
  55     0.020635723611969
  56    -7.2410410251888e-17
  57     0.016000817929445
  58     0.019146361304498
  59     -0.43605052562567
  60     0.023992492015854
  61    3.7399544655241e-15
  62     0.028858368074481
  63      0.18824172138174
  64    5.9560689596719e-15
  65      -0.5438369368563
  66    -0.0066870325835385
  67    -0.030716276773704
  68    4.6703721391958e-17
  69    -0.00055711118675595
  70    6.2436892780896e-17
  71     0.040808788922534
  72      -0.3390791842886
  73      -1.1609568937883
  74    0.0093012703770165
  75    -1.1944229685332e-15
  76      0.26510198125519
  77     0.051801408493719
  78    -3.6014861370078e-15
  79      0.98541401411788
  80    -0.0069838529675702
  81    0.00027419078602814
  82    1.4016860731544e-16
  83    0.0027042297431069
  84    2.6286626333319e-16
  85     0.052044618716858
  86     -0.30844324510498
  87    -0.0044935755723276
  88    -1.8721332905075e-17
  89    -0.0068082524994018
  90     0.066892853253435
  91     0.054599927083927
  92    -0.012139841778873
  93    4.5725445759893e-17
  94     0.011795779657262
  95     0.058048091702411
  96     -0.25146484042125
  97    -0.00015509646464861
  98    -1.2182255034311e-17
  99    0.0094461131373452
 100      0.06128491062365
 101     0.071430315717869
 102      0.01180423822253
 103    -3.7835704178215e-17
 104     0.010923212904258
 105     0.045328005684018
 106     -0.30908850319129
 107    0.0031380716379913
 108    1.6928252238759e-16
 109    -0.0062595996921855
 110     -0.24462272244514
 111       1.3747167426422
 112    0.0006353652957782
 113    -6.7173785532968e-17
 114    -0.015862131699863
 Sym= A
 Ene=               4
 Spin= Alpha
 Occup=    1.00000
   1     0.015474099025688
   2    0.0038633154458032
   3     -0.52925124182399
   4    -0.018494578625341
   5    -9.9402739406076e-17
   6    -0.013840666695145
   7      -0.3925010180488
   8    1.197880789735e-15
   9     -0.23547896986102
  10    -0.011513890481342
  11     0.022723945451363
  12    -1.5582811867938e-16
  13    0.0074060771989246
  14    -1.8645284854569e-17
  15    -0.014500766326824
  16     -0.01815809182538
  17      0.78107361891466
  18     0.015538378653189
  19    -4.2842641250158e-16
  20    0.0045091942354223
  21      0.32646800133984
  22    -7.8003707301374e-17
  23     -0.12984624621684
  24    0.0015403904480824
  25    -0.011254526832624
  26    1.4180635549954e-16
  27     0.024013146804202
  28    -6.2203952463081e-17
  29      0.01364977339718
  30     0.011408808311921
  31     -0.27973394832952
  32    -0.040718636748151
  33    -1.967552759435e-16
  34    0.0093020744734418
  35      0.41665580891552
  36    4.9614035431007e-16
  37      0.38500402646705
  38     0.025025302420968
  39     0.011246337788569
  40    1.0978177321761e-16
  41    -0.017596289874708
  42    -5.2763345957249e-17
  43     0.042029329812555
  44     -0.34366501135929
  45       -1.224305292473
  46      -0.2145524230563
  47    9.2203525153555e-16
  48     -0.13410551684083
  49      -0.7906375194684
  50    -1.2328021906659e-15
  51     -0.51784025129912
  52    0.0021491707570166
  53    -0.0058063111604872
  54    -2.9437183513644e-16
  55    -0.0035896197611512
  56    -6.9039664261544e-17
  57     0.015824324773001
  58     0.017912424694265
  59     -0.42526579682943
  60    -0.014142851796485
  61    4.138125377898e-15
  62    -0.038797262928189
  63      0.57695947226499
  64    5.7241498147645e-15
  65       0.1412567392779
  66    -0.023274087783274
  67    -0.019312948565813
  68    1.5315965389231e-16
  69    0.0089329783711127
  70    1.2702672547594e-20
  71    -0.015963733780296
  72    -0.013729261488162
  73      0.82383020698296
  74     0.017749805216193
  75    -4.4336327606802e-17
  76     0.021381406760554
  77      0.10209119498239
  78    -2.3499798933016e-15
  79      0.39864317038582
  80     0.022595028445519
  81    0.0038189903107679
  82    1.5855415304263e-16
  83     0.012518483651584
  84    2.9809155746593e-16
  85      0.05834686476884
  86     -0.26645501507374
  87    -0.0082362370283171
  88    1.8662483102241e-17
  89    -0.0044596939898715
  90     0.065982875092761
  91     0.060583850473617
  92    -0.016353165708324
  93    4.4315458562981e-18
  94    0.0042386286102396
  95     0.050536449900788
  96     -0.29687263347511
  97    0.0038381493953587
  98    4.8450843783118e-17
  99    0.0071373188575662
 100     -0.24122350573485
 101       1.3524677580886
 102     0.013748754131638
 103    -7.2895446334052e-18
 104    0.0070495431391213
 105     0.044862627303528
 106     -0.30569679249519
 107    0.0070968920434063
 108    1.9818862820992e-16
 109    0.00076471163807395
 110      0.05883827918553
 111     0.090087063458997
 112    -0.0038531512478817
 113    -5.5860709291586e-17
 114    -0.015800616053966
 Sym= A
 Ene=               5
 Spin= Alpha
 Occup=    1.00000
   1    -0.015912395727351
   2     0.014870757519855
   3      0.80386920905631
   4     0.094150984229735
   5    -6.3259029240322e-16
   6    -0.015737197422267
   7      0.55315532506911
   8    -1.0713916532107e-13
   9      0.12651903176639
  10     0.014471988185526
  11    -0.021829112555993
  12    -3.3715916694023e-15
  13    -0.014675107288449
  14    2.7105170547816e-15
  15     0.015322614543112
  16    0.0054485075826032
  17     -0.68461718862137
  18    -0.026018511522464
  19    1.1190357922358e-14
  20    0.0032035340914537
  21     -0.55849830663957
  22    6.1033240314496e-14
  23      0.24750653589471
  24     -0.01188465121193
  25    -0.0030378429847903
  26    -5.0770605589299e-16
  27    -0.015302689809445
  28    4.0614263974122e-16
  29    -0.010923288716652
  30     0.026495875538304
  31      0.65996940897131
  32     0.062508021834391
  33    -3.2086977345524e-15
  34    -0.084230117440095
  35    -0.064721936471687
  36    -1.0858339254375e-13
  37     -0.37953228023605
  38    -0.022269711976197
  39    0.0033634465916892
  40    -5.971721917592e-16
  41    0.0052413516410907
  42    4.3356483746231e-15
  43    -0.012272019647658
  44    -0.086549075689668
  45      0.65306690225807
  46     0.010957903579012
  47    4.4092723311418e-15
  48      0.16074168740468
  49     0.054229162943275
  50    3.2152364409362e-13
  51     -0.85522318624108
  52    -0.014470246553105
  53    -0.039678331878822
  54    3.7124551562461e-14
  55     -0.00230358654657
  56    1.7598371884781e-16
  57     0.026798183351395
  58     -0.18313422705445
  59      -1.4723296681152
  60      0.37756659851417
  61    -5.1026623070313e-13
  62     -0.24808773100458
  63      0.81244911006029
  64    -7.8360485568821e-13
  65     -0.75785673272952
  66    -0.014938149644792
  67    -0.0015825181309436
  68    -2.9573717724814e-16
  69     -0.02943991457573
  70    4.2455565016539e-16
  71    -0.002202768922144
  72    -0.094262955541612
  73     0.018308229196647
  74     -0.11609128180125
  75    6.1408550755868e-15
  76     -0.14338335476712
  77      0.72122719683935
  78    3.2220785201528e-13
  79      0.12573455759522
  80    -0.035809408099755
  81    -0.028331087168952
  82    -1.8602237599675e-14
  83    0.0028262562122946
  84    -3.21974744556e-14
  85    -0.072840753772381
  86      0.37472831205732
  87    0.0059679530772145
  88    -2.6639149408953e-15
  89    0.0086232448231766
  90    -0.010749266697462
  91     -0.25972187232192
  92     0.005858317582377
  93    2.2324589834589e-15
  94    -0.0021585636055044
  95    -0.057796637187357
  96      0.29746248575895
  97    -0.0062347415723711
  98    -2.7243627859937e-15
  99    -0.0069215557812113
 100    -0.035458004160853
 101      0.22836577896698
 102    -0.008066972021951
 103    6.0013788688228e-15
 104    -0.0081718423824137
 105     0.093088564498715
 106      -0.6080519714404
 107     -0.01995866717591
 108    -2.5839968631102e-14
 109    0.0081544063989175
 110    -0.039154780504623
 111      0.12428860380776
 112    0.0052699371874255
 113    6.0830725624932e-15
 114      0.01700806244548
 Sym= A
 Ene=               6
 Spin= Alpha
 Occup=    1.00000
   1     0.014658584967565
   2     0.012374396638054
   3     -0.33982746144949
   4      0.01056875298235
   5    3.4452439983395e-16
   6    -0.040082637002813
   7     -0.56623060592824
   8    -7.5765692433048e-16
   9      0.16185724679781
  10    -0.023630075646139
  11     0.020238908310475
  12    -9.9480728449626e-17
  13    0.0097021243731118
  14    -3.307820253231e-16
  15     0.042610026331242
  16     -0.34556326293936
  17      -1.2449490401357
  18      0.21578133797232
  19    1.3925452028645e-15
  20     -0.12309560624368
  21      0.80355811025868
  22    1.8931985767258e-15
  23     -0.46200326697695
  24    0.0016589232818943
  25    0.0058540504918957
  26    -1.336200268871e-17
  27    -0.0037955096264818
  28    -3.7795026386488e-17
  29     0.014222871780734
  30      0.01214022048737
  31     -0.32307188088005
  32     0.039425672421568
  33    1.2029214189921e-16
  34      0.01023440845273
  35     -0.40802238097511
  36    -6.4513491762619e-16
  37      0.39283159311634
  38     0.023887960428778
  39    -0.011453498810421
  40    3.6162678823337e-17
  41    -0.017561698288882
  42    2.0589031812861e-18
  43    -0.015134597502297
  44    -0.017270157590331
  45      0.79115894707923
  46    -0.016811066518711
  47    1.9930425215582e-16
  48    0.0021223966570003
  49     -0.34763733032738
  50    -1.0943095947066e-15
  51     -0.13753941968619
  52    0.0021655113258486
  53      0.01038254841268
  54    -2.3566283759434e-16
  55     0.023654198942323
  56    1.8463624593679e-16
  57     0.016166039981672
  58    0.0061307445526675
  59     -0.57369286252619
  60     0.017938047527483
  61    2.444616322254e-15
  62    -0.012077077564379
  63      0.41650003036503
  64    3.8820611688688e-15
  65     -0.22353655754391
  66    -0.011355919670004
  67    -0.022106880098822
  68    -8.5006253967536e-17
  69    0.0067132096587008
  70    -1.7731726501869e-17
  71    -0.015889126574719
  72     -0.01507572418983
  73       0.8348401130746
  74    -0.0080378796421734
  75    3.8437478829341e-16